written on  9Dec2017 at 21:01:42 
28
0
   1.4349962953939324      -1.4349962953939324      -1.4349962953939324       1.4349962953939324       1.4349962953939324      -1.4349962953939324       1.4349962953939324       1.4349962953939324       1.4349962953939324    
   2.1892688250650636      -2.1892688250650636       0.0000000000000000       0.0000000000000000       2.1892688250650636      -2.1892688250650636       2.1892688250650636       0.0000000000000000       2.1892688250650636    
8
2 2 2
   0.0000000000000000       0.0000000000000000       0.0000000000000000    
   0.0000000000000000       0.0000000000000000      0.50000000000000000    
   0.0000000000000000      0.50000000000000000       0.0000000000000000    
   0.0000000000000000      0.50000000000000000      0.50000000000000000    
  0.50000000000000000       0.0000000000000000       0.0000000000000000    
  0.50000000000000000       0.0000000000000000      0.50000000000000000    
  0.50000000000000000      0.50000000000000000       0.0000000000000000    
  0.50000000000000000      0.50000000000000000      0.50000000000000000    
12
18
postwann            
1
   6.1930379673120637    
1
1
1
1
1
1
1
1
1
1
1
1
1
1
1
1
1
1
1
1
1
1
1
1
1
1
1
1
1
1
1
1
1
1
1
1
1
1
1
1
1
1
1
1
1
1
1
1
1
1
1
1
1
1
1
1
1
1
1
1
1
1
1
1
1
1
1
1
1
1
1
1
1
1
1
1
1
1
1
1
1
1
1
1
1
1
1
1
1
1
1
1
1
1
1
1
1
1
1
1
1
1
1
1
1
1
1
1
1
1
1
1
1
1
1
1
1
1
1
1
1
1
1
1
1
1
1
1
1
1
1
1
1
1
1
1
1
1
1
1
1
1
1
1
1
1
1
1
1
1
1
1
1
1
1
1
1
1
1
1
1
1
1
1
1
1
1
1
1
1
1
1
1
1
1
1
1
1
1
1
1
1
1
1
1
1
1
1
1
1
1
1
1
1
1
1
1
1
1
1
1
1
1
1
1
1
1
1
1
1
1
1
1
1
1
1
1
1
1
1
1
1
1
1
28
28
28
28
28
28
28
28
   1.0000000000000000       0.0000000000000000    
   0.0000000000000000       0.0000000000000000    
   0.0000000000000000       0.0000000000000000    
   0.0000000000000000       0.0000000000000000    
   0.0000000000000000       0.0000000000000000    
   0.0000000000000000       0.0000000000000000    
   0.0000000000000000       0.0000000000000000    
   0.0000000000000000       0.0000000000000000    
   0.0000000000000000       0.0000000000000000    
   0.0000000000000000       0.0000000000000000    
   0.0000000000000000       0.0000000000000000    
   0.0000000000000000       0.0000000000000000    
   0.0000000000000000       0.0000000000000000    
   0.0000000000000000       0.0000000000000000    
   0.0000000000000000       0.0000000000000000    
   0.0000000000000000       0.0000000000000000    
   0.0000000000000000       0.0000000000000000    
   0.0000000000000000       0.0000000000000000    
   0.0000000000000000       0.0000000000000000    
   0.0000000000000000       0.0000000000000000    
   0.0000000000000000       0.0000000000000000    
   0.0000000000000000       0.0000000000000000    
   0.0000000000000000       0.0000000000000000    
   0.0000000000000000       0.0000000000000000    
   0.0000000000000000       0.0000000000000000    
   0.0000000000000000       0.0000000000000000    
   0.0000000000000000       0.0000000000000000    
   0.0000000000000000       0.0000000000000000    
   0.0000000000000000       0.0000000000000000    
   1.0000000000000000       0.0000000000000000    
   0.0000000000000000       0.0000000000000000    
   0.0000000000000000       0.0000000000000000    
   0.0000000000000000       0.0000000000000000    
   0.0000000000000000       0.0000000000000000    
   0.0000000000000000       0.0000000000000000    
   0.0000000000000000       0.0000000000000000    
   0.0000000000000000       0.0000000000000000    
   0.0000000000000000       0.0000000000000000    
   0.0000000000000000       0.0000000000000000    
   0.0000000000000000       0.0000000000000000    
   0.0000000000000000       0.0000000000000000    
   0.0000000000000000       0.0000000000000000    
   0.0000000000000000       0.0000000000000000    
   0.0000000000000000       0.0000000000000000    
   0.0000000000000000       0.0000000000000000    
   0.0000000000000000       0.0000000000000000    
   0.0000000000000000       0.0000000000000000    
   0.0000000000000000       0.0000000000000000    
   0.0000000000000000       0.0000000000000000    
   0.0000000000000000       0.0000000000000000    
   0.0000000000000000       0.0000000000000000    
   0.0000000000000000       0.0000000000000000    
   0.0000000000000000       0.0000000000000000    
   0.0000000000000000       0.0000000000000000    
   0.0000000000000000       0.0000000000000000    
   0.0000000000000000       0.0000000000000000    
   0.0000000000000000       0.0000000000000000    
   0.0000000000000000       0.0000000000000000    
   1.0000000000000000       0.0000000000000000    
   0.0000000000000000       0.0000000000000000    
   0.0000000000000000       0.0000000000000000    
   0.0000000000000000       0.0000000000000000    
   0.0000000000000000       0.0000000000000000    
   0.0000000000000000       0.0000000000000000    
   0.0000000000000000       0.0000000000000000    
   0.0000000000000000       0.0000000000000000    
   0.0000000000000000       0.0000000000000000    
   0.0000000000000000       0.0000000000000000    
   0.0000000000000000       0.0000000000000000    
   0.0000000000000000       0.0000000000000000    
   0.0000000000000000       0.0000000000000000    
   0.0000000000000000       0.0000000000000000    
   0.0000000000000000       0.0000000000000000    
   0.0000000000000000       0.0000000000000000    
   0.0000000000000000       0.0000000000000000    
   0.0000000000000000       0.0000000000000000    
   0.0000000000000000       0.0000000000000000    
   0.0000000000000000       0.0000000000000000    
   0.0000000000000000       0.0000000000000000    
   0.0000000000000000       0.0000000000000000    
   0.0000000000000000       0.0000000000000000    
   0.0000000000000000       0.0000000000000000    
   0.0000000000000000       0.0000000000000000    
   0.0000000000000000       0.0000000000000000    
   0.0000000000000000       0.0000000000000000    
   0.0000000000000000       0.0000000000000000    
   0.0000000000000000       0.0000000000000000    
   1.0000000000000000       0.0000000000000000    
   0.0000000000000000       0.0000000000000000    
   0.0000000000000000       0.0000000000000000    
   0.0000000000000000       0.0000000000000000    
   0.0000000000000000       0.0000000000000000    
   0.0000000000000000       0.0000000000000000    
   0.0000000000000000       0.0000000000000000    
   0.0000000000000000       0.0000000000000000    
   0.0000000000000000       0.0000000000000000    
   0.0000000000000000       0.0000000000000000    
   0.0000000000000000       0.0000000000000000    
   0.0000000000000000       0.0000000000000000    
   0.0000000000000000       0.0000000000000000    
   0.0000000000000000       0.0000000000000000    
   0.0000000000000000       0.0000000000000000    
   0.0000000000000000       0.0000000000000000    
   0.0000000000000000       0.0000000000000000    
   0.0000000000000000       0.0000000000000000    
   0.0000000000000000       0.0000000000000000    
   0.0000000000000000       0.0000000000000000    
   0.0000000000000000       0.0000000000000000    
   0.0000000000000000       0.0000000000000000    
   0.0000000000000000       0.0000000000000000    
   0.0000000000000000       0.0000000000000000    
   0.0000000000000000       0.0000000000000000    
   0.0000000000000000       0.0000000000000000    
   0.0000000000000000       0.0000000000000000    
   0.0000000000000000       0.0000000000000000    
   0.0000000000000000       0.0000000000000000    
   1.0000000000000000       0.0000000000000000    
   0.0000000000000000       0.0000000000000000    
   0.0000000000000000       0.0000000000000000    
   0.0000000000000000       0.0000000000000000    
   0.0000000000000000       0.0000000000000000    
   0.0000000000000000       0.0000000000000000    
   0.0000000000000000       0.0000000000000000    
   0.0000000000000000       0.0000000000000000    
   0.0000000000000000       0.0000000000000000    
   0.0000000000000000       0.0000000000000000    
   0.0000000000000000       0.0000000000000000    
   0.0000000000000000       0.0000000000000000    
   0.0000000000000000       0.0000000000000000    
   0.0000000000000000       0.0000000000000000    
   0.0000000000000000       0.0000000000000000    
   0.0000000000000000       0.0000000000000000    
   0.0000000000000000       0.0000000000000000    
   0.0000000000000000       0.0000000000000000    
   0.0000000000000000       0.0000000000000000    
   0.0000000000000000       0.0000000000000000    
   0.0000000000000000       0.0000000000000000    
   0.0000000000000000       0.0000000000000000    
   0.0000000000000000       0.0000000000000000    
   0.0000000000000000       0.0000000000000000    
   0.0000000000000000       0.0000000000000000    
   0.0000000000000000       0.0000000000000000    
   0.0000000000000000       0.0000000000000000    
   0.0000000000000000       0.0000000000000000    
   0.0000000000000000       0.0000000000000000    
   1.0000000000000000       0.0000000000000000    
   0.0000000000000000       0.0000000000000000    
   0.0000000000000000       0.0000000000000000    
   0.0000000000000000       0.0000000000000000    
   0.0000000000000000       0.0000000000000000    
   0.0000000000000000       0.0000000000000000    
   0.0000000000000000       0.0000000000000000    
   0.0000000000000000       0.0000000000000000    
   0.0000000000000000       0.0000000000000000    
   0.0000000000000000       0.0000000000000000    
   0.0000000000000000       0.0000000000000000    
   0.0000000000000000       0.0000000000000000    
   0.0000000000000000       0.0000000000000000    
   0.0000000000000000       0.0000000000000000    
   0.0000000000000000       0.0000000000000000    
   0.0000000000000000       0.0000000000000000    
   0.0000000000000000       0.0000000000000000    
   0.0000000000000000       0.0000000000000000    
   0.0000000000000000       0.0000000000000000    
   0.0000000000000000       0.0000000000000000    
   0.0000000000000000       0.0000000000000000    
   0.0000000000000000       0.0000000000000000    
   0.0000000000000000       0.0000000000000000    
   0.0000000000000000       0.0000000000000000    
   0.0000000000000000       0.0000000000000000    
   0.0000000000000000       0.0000000000000000    
   0.0000000000000000       0.0000000000000000    
   0.0000000000000000       0.0000000000000000    
   0.0000000000000000       0.0000000000000000    
   1.0000000000000000       0.0000000000000000    
   0.0000000000000000       0.0000000000000000    
   0.0000000000000000       0.0000000000000000    
   0.0000000000000000       0.0000000000000000    
   0.0000000000000000       0.0000000000000000    
   0.0000000000000000       0.0000000000000000    
   0.0000000000000000       0.0000000000000000    
   0.0000000000000000       0.0000000000000000    
   0.0000000000000000       0.0000000000000000    
   0.0000000000000000       0.0000000000000000    
   0.0000000000000000       0.0000000000000000    
   0.0000000000000000       0.0000000000000000    
   0.0000000000000000       0.0000000000000000    
   0.0000000000000000       0.0000000000000000    
   0.0000000000000000       0.0000000000000000    
   0.0000000000000000       0.0000000000000000    
   0.0000000000000000       0.0000000000000000    
   0.0000000000000000       0.0000000000000000    
   0.0000000000000000       0.0000000000000000    
   0.0000000000000000       0.0000000000000000    
   0.0000000000000000       0.0000000000000000    
   0.0000000000000000       0.0000000000000000    
   0.0000000000000000       0.0000000000000000    
   0.0000000000000000       0.0000000000000000    
   0.0000000000000000       0.0000000000000000    
   0.0000000000000000       0.0000000000000000    
   0.0000000000000000       0.0000000000000000    
   0.0000000000000000       0.0000000000000000    
   0.0000000000000000       0.0000000000000000    
   1.0000000000000000       0.0000000000000000    
   0.0000000000000000       0.0000000000000000    
   0.0000000000000000       0.0000000000000000    
   0.0000000000000000       0.0000000000000000    
   0.0000000000000000       0.0000000000000000    
   0.0000000000000000       0.0000000000000000    
   0.0000000000000000       0.0000000000000000    
   0.0000000000000000       0.0000000000000000    
   0.0000000000000000       0.0000000000000000    
   0.0000000000000000       0.0000000000000000    
   0.0000000000000000       0.0000000000000000    
   0.0000000000000000       0.0000000000000000    
   0.0000000000000000       0.0000000000000000    
   0.0000000000000000       0.0000000000000000    
   0.0000000000000000       0.0000000000000000    
   0.0000000000000000       0.0000000000000000    
   0.0000000000000000       0.0000000000000000    
   0.0000000000000000       0.0000000000000000    
   0.0000000000000000       0.0000000000000000    
   0.0000000000000000       0.0000000000000000    
   0.0000000000000000       0.0000000000000000    
   0.0000000000000000       0.0000000000000000    
   0.0000000000000000       0.0000000000000000    
   0.0000000000000000       0.0000000000000000    
   0.0000000000000000       0.0000000000000000    
   0.0000000000000000       0.0000000000000000    
   0.0000000000000000       0.0000000000000000    
   0.0000000000000000       0.0000000000000000    
   0.0000000000000000       0.0000000000000000    
   1.0000000000000000       0.0000000000000000    
   0.0000000000000000       0.0000000000000000    
   0.0000000000000000       0.0000000000000000    
   0.0000000000000000       0.0000000000000000    
   0.0000000000000000       0.0000000000000000    
   0.0000000000000000       0.0000000000000000    
   0.0000000000000000       0.0000000000000000    
   0.0000000000000000       0.0000000000000000    
   0.0000000000000000       0.0000000000000000    
   0.0000000000000000       0.0000000000000000    
   0.0000000000000000       0.0000000000000000    
   0.0000000000000000       0.0000000000000000    
   0.0000000000000000       0.0000000000000000    
   0.0000000000000000       0.0000000000000000    
   0.0000000000000000       0.0000000000000000    
   0.0000000000000000       0.0000000000000000    
   0.0000000000000000       0.0000000000000000    
   0.0000000000000000       0.0000000000000000    
   0.0000000000000000       0.0000000000000000    
   0.0000000000000000       0.0000000000000000    
   0.0000000000000000       0.0000000000000000    
   0.0000000000000000       0.0000000000000000    
   0.0000000000000000       0.0000000000000000    
   0.0000000000000000       0.0000000000000000    
   0.0000000000000000       0.0000000000000000    
   0.0000000000000000       0.0000000000000000    
   0.0000000000000000       0.0000000000000000    
   0.0000000000000000       0.0000000000000000    
   0.0000000000000000       0.0000000000000000    
   1.0000000000000000       0.0000000000000000    
   0.0000000000000000       0.0000000000000000    
   0.0000000000000000       0.0000000000000000    
   0.0000000000000000       0.0000000000000000    
   0.0000000000000000       0.0000000000000000    
   0.0000000000000000       0.0000000000000000    
   0.0000000000000000       0.0000000000000000    
   0.0000000000000000       0.0000000000000000    
   0.0000000000000000       0.0000000000000000    
   0.0000000000000000       0.0000000000000000    
   0.0000000000000000       0.0000000000000000    
   0.0000000000000000       0.0000000000000000    
   0.0000000000000000       0.0000000000000000    
   0.0000000000000000       0.0000000000000000    
   0.0000000000000000       0.0000000000000000    
   0.0000000000000000       0.0000000000000000    
   0.0000000000000000       0.0000000000000000    
   0.0000000000000000       0.0000000000000000    
   0.0000000000000000       0.0000000000000000    
   0.0000000000000000       0.0000000000000000    
   0.0000000000000000       0.0000000000000000    
   0.0000000000000000       0.0000000000000000    
   0.0000000000000000       0.0000000000000000    
   0.0000000000000000       0.0000000000000000    
   0.0000000000000000       0.0000000000000000    
   0.0000000000000000       0.0000000000000000    
   0.0000000000000000       0.0000000000000000    
   0.0000000000000000       0.0000000000000000    
   0.0000000000000000       0.0000000000000000    
   1.0000000000000000       0.0000000000000000    
   0.0000000000000000       0.0000000000000000    
   0.0000000000000000       0.0000000000000000    
   0.0000000000000000       0.0000000000000000    
   0.0000000000000000       0.0000000000000000    
   0.0000000000000000       0.0000000000000000    
   0.0000000000000000       0.0000000000000000    
   0.0000000000000000       0.0000000000000000    
   0.0000000000000000       0.0000000000000000    
   0.0000000000000000       0.0000000000000000    
   0.0000000000000000       0.0000000000000000    
   0.0000000000000000       0.0000000000000000    
   0.0000000000000000       0.0000000000000000    
   0.0000000000000000       0.0000000000000000    
   0.0000000000000000       0.0000000000000000    
   0.0000000000000000       0.0000000000000000    
   0.0000000000000000       0.0000000000000000    
   0.0000000000000000       0.0000000000000000    
   0.0000000000000000       0.0000000000000000    
   0.0000000000000000       0.0000000000000000    
   0.0000000000000000       0.0000000000000000    
   0.0000000000000000       0.0000000000000000    
   0.0000000000000000       0.0000000000000000    
   0.0000000000000000       0.0000000000000000    
   0.0000000000000000       0.0000000000000000    
   0.0000000000000000       0.0000000000000000    
   0.0000000000000000       0.0000000000000000    
   0.0000000000000000       0.0000000000000000    
   0.0000000000000000       0.0000000000000000    
   1.0000000000000000       0.0000000000000000    
   0.0000000000000000       0.0000000000000000    
   0.0000000000000000       0.0000000000000000    
   0.0000000000000000       0.0000000000000000    
   0.0000000000000000       0.0000000000000000    
   0.0000000000000000       0.0000000000000000    
   0.0000000000000000       0.0000000000000000    
   0.0000000000000000       0.0000000000000000    
   0.0000000000000000       0.0000000000000000    
   0.0000000000000000       0.0000000000000000    
   0.0000000000000000       0.0000000000000000    
   0.0000000000000000       0.0000000000000000    
   0.0000000000000000       0.0000000000000000    
   0.0000000000000000       0.0000000000000000    
   0.0000000000000000       0.0000000000000000    
   0.0000000000000000       0.0000000000000000    
   0.0000000000000000       0.0000000000000000    
   0.0000000000000000       0.0000000000000000    
   0.0000000000000000       0.0000000000000000    
   0.0000000000000000       0.0000000000000000    
   0.0000000000000000       0.0000000000000000    
   0.0000000000000000       0.0000000000000000    
   0.0000000000000000       0.0000000000000000    
   0.0000000000000000       0.0000000000000000    
   0.0000000000000000       0.0000000000000000    
   0.0000000000000000       0.0000000000000000    
   0.0000000000000000       0.0000000000000000    
   0.0000000000000000       0.0000000000000000    
   0.0000000000000000       0.0000000000000000    
  0.95944363218909956E-08 -0.63874544224959887E-08
  0.15031078240434295E-07  0.32065977173363934E-07
 -0.18963787955881696E-07  0.34663900237778090E-07
 -0.74672650761417339E-08  0.11687273262060122E-07
  0.67347885555037385E-03  0.15879582186528938E-03
 -0.69176258443244551E-08 -0.41846520956031446E-07
  0.58543762010231266E-02 -0.99998262359243117    
  0.73712456773391578E-09 -0.64359458838746891E-09
  0.13839253451690232E-08  0.22147334729007522E-08
  0.20828748195722232E-07  0.37635954940637134E-07
 -0.33153426835370807E-08  0.15983933498554320E-07
 -0.27623302389610539E-08  0.26066679149261732E-07
  0.56950242628971450E-07  0.14095322876526059E-07
  0.10356337948582089E-10 -0.13952183293703648E-09
 -0.10160512267549706E-06 -0.16101637420293872E-05
  0.28591879896796228E-09  0.10650684064066388E-09
   0.0000000000000000       0.0000000000000000    
   0.0000000000000000       0.0000000000000000    
   0.0000000000000000       0.0000000000000000    
   0.0000000000000000       0.0000000000000000    
   0.0000000000000000       0.0000000000000000    
   0.0000000000000000       0.0000000000000000    
   0.0000000000000000       0.0000000000000000    
   0.0000000000000000       0.0000000000000000    
   0.0000000000000000       0.0000000000000000    
   0.0000000000000000       0.0000000000000000    
   0.0000000000000000       0.0000000000000000    
   0.0000000000000000       0.0000000000000000    
  0.14066997007019407E-03  0.14917803842555935E-02
 -0.10634889235155423E-07  0.24283881563399941E-09
  0.43552733347294297E-08  0.33991314402105599E-08
 -0.25648767182611207E-07  0.67124819303759016E-08
  0.25952707745726422E-08 -0.15507330126477551E-07
  0.13107541356952348E-07 -0.34753197713955335E-08
 -0.48537506582640190E-09 -0.86105826830348210E-09
 -0.32710470206444564      0.94498691453618078    
  0.16095634724607659E-09 -0.18709982208443295E-08
 -0.91680737960291825E-08 -0.13690870982279202E-07
 -0.46992049426896400E-07 -0.39454876074950298E-07
  0.11369190736297131E-07  0.17431769905096843E-07
 -0.26810373129139235E-07  0.23242082728467228E-08
  0.93534144090323035E-06  0.67144136181983790E-05
 -0.83913822610025481E-10 -0.18214973376678604E-09
 -0.22531771447407633E-09  0.21245103762506820E-09
   0.0000000000000000       0.0000000000000000    
   0.0000000000000000       0.0000000000000000    
   0.0000000000000000       0.0000000000000000    
   0.0000000000000000       0.0000000000000000    
   0.0000000000000000       0.0000000000000000    
   0.0000000000000000       0.0000000000000000    
   0.0000000000000000       0.0000000000000000    
   0.0000000000000000       0.0000000000000000    
   0.0000000000000000       0.0000000000000000    
   0.0000000000000000       0.0000000000000000    
   0.0000000000000000       0.0000000000000000    
   0.0000000000000000       0.0000000000000000    
  0.10631253771436156E-07  0.36914561413566363E-08
  0.20670726103657304E-07 -0.11621787314505839E-07
  0.64780200721254323E-03 -0.13655153356819077E-02
  0.26069637233946494E-07 -0.11834367478929058E-07
  0.23897676932372677E-07 -0.55916182101978135E-09
  0.59672049847476333E-03  0.16992783523544128E-03
 -0.96775004492276179E-09 -0.24895819476348187E-08
 -0.12053658119026433E-08 -0.14696865512543874E-08
 -0.80437146780695779     -0.59412445880276632    
 -0.26208662582623121E-07 -0.56142127779449219E-07
 -0.68307768773780678E-08  0.60104712823713999E-10
 -0.24643514838766775E-07 -0.88613742401063922E-08
 -0.17895809538487070E-07 -0.18080878097012727E-08
  0.46454367627314104E-09  0.36718296757102070E-09
 -0.77409208789660271E-11 -0.15412730342578353E-09
 -0.49133453566279691E-09 -0.26728794133810690E-09
   0.0000000000000000       0.0000000000000000    
   0.0000000000000000       0.0000000000000000    
   0.0000000000000000       0.0000000000000000    
   0.0000000000000000       0.0000000000000000    
   0.0000000000000000       0.0000000000000000    
   0.0000000000000000       0.0000000000000000    
   0.0000000000000000       0.0000000000000000    
   0.0000000000000000       0.0000000000000000    
   0.0000000000000000       0.0000000000000000    
   0.0000000000000000       0.0000000000000000    
   0.0000000000000000       0.0000000000000000    
   0.0000000000000000       0.0000000000000000    
 -0.41018871556609373E-04  0.81569064956604417E-03
 -0.19660473750489552E-07  0.45879872688537740E-07
  0.62433684495759762E-07  0.14091549278831518E-08
  0.14800988396527876E-07 -0.49369674512986321E-07
 -0.30040463459190512E-07 -0.16181604389458859E-07
  0.40517610588314966E-07 -0.19542070154706547E-07
 -0.99925777763418810E-11 -0.16804094370233440E-09
  0.36778893124182629E-05 -0.71078552680322018E-05
  0.20305489214325113E-10  0.69023492023903038E-09
 -0.46377995858435468E-07 -0.32096562642826107E-07
  0.40609932173654409E-07 -0.19777423926338066E-07
  0.37740651184490881E-07 -0.88807298238563976E-07
  0.19644810268109897E-07  0.46936321381371149E-07
 -0.58508383153155936E-02  0.99998255014432458    
 -0.52828010791053850E-09 -0.40683728031287388E-09
 -0.32186232999900304E-09  0.10499227550917902E-08
   0.0000000000000000       0.0000000000000000    
   0.0000000000000000       0.0000000000000000    
   0.0000000000000000       0.0000000000000000    
   0.0000000000000000       0.0000000000000000    
   0.0000000000000000       0.0000000000000000    
   0.0000000000000000       0.0000000000000000    
   0.0000000000000000       0.0000000000000000    
   0.0000000000000000       0.0000000000000000    
   0.0000000000000000       0.0000000000000000    
   0.0000000000000000       0.0000000000000000    
   0.0000000000000000       0.0000000000000000    
   0.0000000000000000       0.0000000000000000    
  0.68155624310734458E-08 -0.23708859181795305E-07
 -0.55297888967135702E-07 -0.39078184618184663E-07
 -0.14166124042231541E-07  0.12178794169473983E-07
  0.64969429193049796E-08 -0.23316334219797452E-07
 -0.46309428037331012E-03 -0.21321948371502567E-03
  0.97402699489146967E-08  0.23125914785320026E-07
  0.40175642874135228E-06 -0.19246516570007571E-05
 -0.18794719286742542E-09  0.14795011874633510E-09
 -0.12386396899665321E-09 -0.13297176289882487E-09
 -0.18684694452454004E-07 -0.54274299544874550E-07
  0.39241879333919670E-07 -0.10686686084918996E-06
  0.23797633478494237E-07  0.22100113543743039E-07
 -0.22025586714520805E-07  0.74981178393611759E-08
 -0.58647294565012956E-09  0.32975521945145018E-09
 -0.13648683927956740      0.99064175299687607    
 -0.86158887196555039E-08 -0.58223387892033127E-09
   0.0000000000000000       0.0000000000000000    
   0.0000000000000000       0.0000000000000000    
   0.0000000000000000       0.0000000000000000    
   0.0000000000000000       0.0000000000000000    
   0.0000000000000000       0.0000000000000000    
   0.0000000000000000       0.0000000000000000    
   0.0000000000000000       0.0000000000000000    
   0.0000000000000000       0.0000000000000000    
   0.0000000000000000       0.0000000000000000    
   0.0000000000000000       0.0000000000000000    
   0.0000000000000000       0.0000000000000000    
   0.0000000000000000       0.0000000000000000    
  0.15470978019263372E-07 -0.23897893736133933E-07
  0.39155749854984562E-03  0.65539942742970196E-03
 -0.61899930817334104E-09  0.51464690120434299E-07
  0.40724361953610325E-03  0.29536156157951391E-03
  0.56232475863463301E-07 -0.80406944572774689E-08
 -0.42037094921608578E-07 -0.34326223947274553E-07
  0.12731415134452832E-09  0.35099302542026677E-09
 -0.33146974580805810E-09  0.17139801674698891E-09
 -0.65888030800259461E-09 -0.94966833085528314E-10
  0.19750765624433417E-07 -0.13756041678138497E-07
 -0.25851839813247044E-08 -0.12386883658604921E-08
  0.21367454002470991E-07  0.94217309330576691E-09
 -0.51454969985892736E-07  0.13408363411110965E-07
 -0.10711003563173221E-08  0.31766292454953281E-09
 -0.63826895613345282E-09  0.86881932607229716E-08
  0.99999138334331705      0.40493564434576470E-02
   1.0000000000000000       0.0000000000000000    
   0.0000000000000000       0.0000000000000000    
   0.0000000000000000       0.0000000000000000    
   0.0000000000000000       0.0000000000000000    
   0.0000000000000000       0.0000000000000000    
   0.0000000000000000       0.0000000000000000    
   0.0000000000000000       0.0000000000000000    
   0.0000000000000000       0.0000000000000000    
   0.0000000000000000       0.0000000000000000    
   0.0000000000000000       0.0000000000000000    
   0.0000000000000000       0.0000000000000000    
   0.0000000000000000       0.0000000000000000    
   0.0000000000000000       0.0000000000000000    
   0.0000000000000000       0.0000000000000000    
   0.0000000000000000       0.0000000000000000    
   0.0000000000000000       0.0000000000000000    
   0.0000000000000000       0.0000000000000000    
   0.0000000000000000       0.0000000000000000    
   0.0000000000000000       0.0000000000000000    
   0.0000000000000000       0.0000000000000000    
   0.0000000000000000       0.0000000000000000    
   0.0000000000000000       0.0000000000000000    
   0.0000000000000000       0.0000000000000000    
   0.0000000000000000       0.0000000000000000    
   0.0000000000000000       0.0000000000000000    
   0.0000000000000000       0.0000000000000000    
   0.0000000000000000       0.0000000000000000    
   0.0000000000000000       0.0000000000000000    
   0.0000000000000000       0.0000000000000000    
   1.0000000000000000       0.0000000000000000    
   0.0000000000000000       0.0000000000000000    
   0.0000000000000000       0.0000000000000000    
   0.0000000000000000       0.0000000000000000    
   0.0000000000000000       0.0000000000000000    
   0.0000000000000000       0.0000000000000000    
   0.0000000000000000       0.0000000000000000    
   0.0000000000000000       0.0000000000000000    
   0.0000000000000000       0.0000000000000000    
   0.0000000000000000       0.0000000000000000    
   0.0000000000000000       0.0000000000000000    
   0.0000000000000000       0.0000000000000000    
   0.0000000000000000       0.0000000000000000    
   0.0000000000000000       0.0000000000000000    
   0.0000000000000000       0.0000000000000000    
   0.0000000000000000       0.0000000000000000    
   0.0000000000000000       0.0000000000000000    
   0.0000000000000000       0.0000000000000000    
   0.0000000000000000       0.0000000000000000    
   0.0000000000000000       0.0000000000000000    
   0.0000000000000000       0.0000000000000000    
   0.0000000000000000       0.0000000000000000    
   0.0000000000000000       0.0000000000000000    
   0.0000000000000000       0.0000000000000000    
   0.0000000000000000       0.0000000000000000    
   0.0000000000000000       0.0000000000000000    
   0.0000000000000000       0.0000000000000000    
   0.0000000000000000       0.0000000000000000    
   0.0000000000000000       0.0000000000000000    
   1.0000000000000000       0.0000000000000000    
   0.0000000000000000       0.0000000000000000    
   0.0000000000000000       0.0000000000000000    
   0.0000000000000000       0.0000000000000000    
   0.0000000000000000       0.0000000000000000    
   0.0000000000000000       0.0000000000000000    
   0.0000000000000000       0.0000000000000000    
   0.0000000000000000       0.0000000000000000    
   0.0000000000000000       0.0000000000000000    
   0.0000000000000000       0.0000000000000000    
   0.0000000000000000       0.0000000000000000    
   0.0000000000000000       0.0000000000000000    
   0.0000000000000000       0.0000000000000000    
   0.0000000000000000       0.0000000000000000    
   0.0000000000000000       0.0000000000000000    
   0.0000000000000000       0.0000000000000000    
   0.0000000000000000       0.0000000000000000    
   0.0000000000000000       0.0000000000000000    
   0.0000000000000000       0.0000000000000000    
   0.0000000000000000       0.0000000000000000    
   0.0000000000000000       0.0000000000000000    
   0.0000000000000000       0.0000000000000000    
   0.0000000000000000       0.0000000000000000    
   0.0000000000000000       0.0000000000000000    
   0.0000000000000000       0.0000000000000000    
   0.0000000000000000       0.0000000000000000    
   0.0000000000000000       0.0000000000000000    
   0.0000000000000000       0.0000000000000000    
   0.0000000000000000       0.0000000000000000    
   1.0000000000000000       0.0000000000000000    
   0.0000000000000000       0.0000000000000000    
   0.0000000000000000       0.0000000000000000    
   0.0000000000000000       0.0000000000000000    
   0.0000000000000000       0.0000000000000000    
   0.0000000000000000       0.0000000000000000    
   0.0000000000000000       0.0000000000000000    
   0.0000000000000000       0.0000000000000000    
   0.0000000000000000       0.0000000000000000    
   0.0000000000000000       0.0000000000000000    
   0.0000000000000000       0.0000000000000000    
   0.0000000000000000       0.0000000000000000    
   0.0000000000000000       0.0000000000000000    
   0.0000000000000000       0.0000000000000000    
   0.0000000000000000       0.0000000000000000    
   0.0000000000000000       0.0000000000000000    
   0.0000000000000000       0.0000000000000000    
   0.0000000000000000       0.0000000000000000    
   0.0000000000000000       0.0000000000000000    
   0.0000000000000000       0.0000000000000000    
   0.0000000000000000       0.0000000000000000    
   0.0000000000000000       0.0000000000000000    
   0.0000000000000000       0.0000000000000000    
   0.0000000000000000       0.0000000000000000    
   0.0000000000000000       0.0000000000000000    
   0.0000000000000000       0.0000000000000000    
   0.0000000000000000       0.0000000000000000    
   0.0000000000000000       0.0000000000000000    
   0.0000000000000000       0.0000000000000000    
   1.0000000000000000       0.0000000000000000    
   0.0000000000000000       0.0000000000000000    
   0.0000000000000000       0.0000000000000000    
   0.0000000000000000       0.0000000000000000    
   0.0000000000000000       0.0000000000000000    
   0.0000000000000000       0.0000000000000000    
   0.0000000000000000       0.0000000000000000    
   0.0000000000000000       0.0000000000000000    
   0.0000000000000000       0.0000000000000000    
   0.0000000000000000       0.0000000000000000    
   0.0000000000000000       0.0000000000000000    
   0.0000000000000000       0.0000000000000000    
   0.0000000000000000       0.0000000000000000    
   0.0000000000000000       0.0000000000000000    
   0.0000000000000000       0.0000000000000000    
   0.0000000000000000       0.0000000000000000    
   0.0000000000000000       0.0000000000000000    
   0.0000000000000000       0.0000000000000000    
   0.0000000000000000       0.0000000000000000    
   0.0000000000000000       0.0000000000000000    
   0.0000000000000000       0.0000000000000000    
   0.0000000000000000       0.0000000000000000    
   0.0000000000000000       0.0000000000000000    
   0.0000000000000000       0.0000000000000000    
   0.0000000000000000       0.0000000000000000    
   0.0000000000000000       0.0000000000000000    
   0.0000000000000000       0.0000000000000000    
   0.0000000000000000       0.0000000000000000    
   0.0000000000000000       0.0000000000000000    
   1.0000000000000000       0.0000000000000000    
   0.0000000000000000       0.0000000000000000    
   0.0000000000000000       0.0000000000000000    
   0.0000000000000000       0.0000000000000000    
   0.0000000000000000       0.0000000000000000    
   0.0000000000000000       0.0000000000000000    
   0.0000000000000000       0.0000000000000000    
   0.0000000000000000       0.0000000000000000    
   0.0000000000000000       0.0000000000000000    
   0.0000000000000000       0.0000000000000000    
   0.0000000000000000       0.0000000000000000    
   0.0000000000000000       0.0000000000000000    
   0.0000000000000000       0.0000000000000000    
   0.0000000000000000       0.0000000000000000    
   0.0000000000000000       0.0000000000000000    
   0.0000000000000000       0.0000000000000000    
   0.0000000000000000       0.0000000000000000    
   0.0000000000000000       0.0000000000000000    
   0.0000000000000000       0.0000000000000000    
   0.0000000000000000       0.0000000000000000    
   0.0000000000000000       0.0000000000000000    
   0.0000000000000000       0.0000000000000000    
   0.0000000000000000       0.0000000000000000    
   0.0000000000000000       0.0000000000000000    
   0.0000000000000000       0.0000000000000000    
   0.0000000000000000       0.0000000000000000    
   0.0000000000000000       0.0000000000000000    
   0.0000000000000000       0.0000000000000000    
   0.0000000000000000       0.0000000000000000    
   1.0000000000000000       0.0000000000000000    
   0.0000000000000000       0.0000000000000000    
   0.0000000000000000       0.0000000000000000    
   0.0000000000000000       0.0000000000000000    
   0.0000000000000000       0.0000000000000000    
   0.0000000000000000       0.0000000000000000    
   0.0000000000000000       0.0000000000000000    
   0.0000000000000000       0.0000000000000000    
   0.0000000000000000       0.0000000000000000    
   0.0000000000000000       0.0000000000000000    
   0.0000000000000000       0.0000000000000000    
   0.0000000000000000       0.0000000000000000    
   0.0000000000000000       0.0000000000000000    
   0.0000000000000000       0.0000000000000000    
   0.0000000000000000       0.0000000000000000    
   0.0000000000000000       0.0000000000000000    
   0.0000000000000000       0.0000000000000000    
   0.0000000000000000       0.0000000000000000    
   0.0000000000000000       0.0000000000000000    
   0.0000000000000000       0.0000000000000000    
   0.0000000000000000       0.0000000000000000    
   0.0000000000000000       0.0000000000000000    
   0.0000000000000000       0.0000000000000000    
   0.0000000000000000       0.0000000000000000    
   0.0000000000000000       0.0000000000000000    
   0.0000000000000000       0.0000000000000000    
   0.0000000000000000       0.0000000000000000    
   0.0000000000000000       0.0000000000000000    
   0.0000000000000000       0.0000000000000000    
   1.0000000000000000       0.0000000000000000    
   0.0000000000000000       0.0000000000000000    
   0.0000000000000000       0.0000000000000000    
   0.0000000000000000       0.0000000000000000    
   0.0000000000000000       0.0000000000000000    
   0.0000000000000000       0.0000000000000000    
   0.0000000000000000       0.0000000000000000    
   0.0000000000000000       0.0000000000000000    
   0.0000000000000000       0.0000000000000000    
   0.0000000000000000       0.0000000000000000    
   0.0000000000000000       0.0000000000000000    
   0.0000000000000000       0.0000000000000000    
   0.0000000000000000       0.0000000000000000    
   0.0000000000000000       0.0000000000000000    
   0.0000000000000000       0.0000000000000000    
   0.0000000000000000       0.0000000000000000    
   0.0000000000000000       0.0000000000000000    
   0.0000000000000000       0.0000000000000000    
   0.0000000000000000       0.0000000000000000    
   0.0000000000000000       0.0000000000000000    
   0.0000000000000000       0.0000000000000000    
   0.0000000000000000       0.0000000000000000    
   0.0000000000000000       0.0000000000000000    
   0.0000000000000000       0.0000000000000000    
   0.0000000000000000       0.0000000000000000    
   0.0000000000000000       0.0000000000000000    
   0.0000000000000000       0.0000000000000000    
   0.0000000000000000       0.0000000000000000    
   0.0000000000000000       0.0000000000000000    
   1.0000000000000000       0.0000000000000000    
   0.0000000000000000       0.0000000000000000    
   0.0000000000000000       0.0000000000000000    
   0.0000000000000000       0.0000000000000000    
   0.0000000000000000       0.0000000000000000    
   0.0000000000000000       0.0000000000000000    
   0.0000000000000000       0.0000000000000000    
   0.0000000000000000       0.0000000000000000    
   0.0000000000000000       0.0000000000000000    
   0.0000000000000000       0.0000000000000000    
   0.0000000000000000       0.0000000000000000    
   0.0000000000000000       0.0000000000000000    
   0.0000000000000000       0.0000000000000000    
   0.0000000000000000       0.0000000000000000    
   0.0000000000000000       0.0000000000000000    
   0.0000000000000000       0.0000000000000000    
   0.0000000000000000       0.0000000000000000    
   0.0000000000000000       0.0000000000000000    
   0.0000000000000000       0.0000000000000000    
   0.0000000000000000       0.0000000000000000    
   0.0000000000000000       0.0000000000000000    
   0.0000000000000000       0.0000000000000000    
   0.0000000000000000       0.0000000000000000    
   0.0000000000000000       0.0000000000000000    
   0.0000000000000000       0.0000000000000000    
   0.0000000000000000       0.0000000000000000    
   0.0000000000000000       0.0000000000000000    
   0.0000000000000000       0.0000000000000000    
   0.0000000000000000       0.0000000000000000    
   1.0000000000000000       0.0000000000000000    
   0.0000000000000000       0.0000000000000000    
   0.0000000000000000       0.0000000000000000    
   0.0000000000000000       0.0000000000000000    
   0.0000000000000000       0.0000000000000000    
   0.0000000000000000       0.0000000000000000    
   0.0000000000000000       0.0000000000000000    
   0.0000000000000000       0.0000000000000000    
   0.0000000000000000       0.0000000000000000    
   0.0000000000000000       0.0000000000000000    
   0.0000000000000000       0.0000000000000000    
   0.0000000000000000       0.0000000000000000    
   0.0000000000000000       0.0000000000000000    
   0.0000000000000000       0.0000000000000000    
   0.0000000000000000       0.0000000000000000    
   0.0000000000000000       0.0000000000000000    
   0.0000000000000000       0.0000000000000000    
   0.0000000000000000       0.0000000000000000    
   0.0000000000000000       0.0000000000000000    
   0.0000000000000000       0.0000000000000000    
   0.0000000000000000       0.0000000000000000    
   0.0000000000000000       0.0000000000000000    
   0.0000000000000000       0.0000000000000000    
   0.0000000000000000       0.0000000000000000    
   0.0000000000000000       0.0000000000000000    
   0.0000000000000000       0.0000000000000000    
   0.0000000000000000       0.0000000000000000    
   0.0000000000000000       0.0000000000000000    
   0.0000000000000000       0.0000000000000000    
   1.0000000000000000       0.0000000000000000    
   0.0000000000000000       0.0000000000000000    
   0.0000000000000000       0.0000000000000000    
   0.0000000000000000       0.0000000000000000    
   0.0000000000000000       0.0000000000000000    
   0.0000000000000000       0.0000000000000000    
   0.0000000000000000       0.0000000000000000    
   0.0000000000000000       0.0000000000000000    
   0.0000000000000000       0.0000000000000000    
   0.0000000000000000       0.0000000000000000    
   0.0000000000000000       0.0000000000000000    
   0.0000000000000000       0.0000000000000000    
   0.0000000000000000       0.0000000000000000    
   0.0000000000000000       0.0000000000000000    
   0.0000000000000000       0.0000000000000000    
   0.0000000000000000       0.0000000000000000    
   0.0000000000000000       0.0000000000000000    
   0.0000000000000000       0.0000000000000000    
   0.0000000000000000       0.0000000000000000    
   0.0000000000000000       0.0000000000000000    
   0.0000000000000000       0.0000000000000000    
   0.0000000000000000       0.0000000000000000    
   0.0000000000000000       0.0000000000000000    
   0.0000000000000000       0.0000000000000000    
   0.0000000000000000       0.0000000000000000    
   0.0000000000000000       0.0000000000000000    
   0.0000000000000000       0.0000000000000000    
   0.0000000000000000       0.0000000000000000    
   0.0000000000000000       0.0000000000000000    
   1.0000000000000000       0.0000000000000000    
   0.0000000000000000       0.0000000000000000    
   0.0000000000000000       0.0000000000000000    
   0.0000000000000000       0.0000000000000000    
   0.0000000000000000       0.0000000000000000    
   0.0000000000000000       0.0000000000000000    
   0.0000000000000000       0.0000000000000000    
   0.0000000000000000       0.0000000000000000    
   0.0000000000000000       0.0000000000000000    
   0.0000000000000000       0.0000000000000000    
   0.0000000000000000       0.0000000000000000    
   0.0000000000000000       0.0000000000000000    
   0.0000000000000000       0.0000000000000000    
   0.0000000000000000       0.0000000000000000    
   0.0000000000000000       0.0000000000000000    
   0.0000000000000000       0.0000000000000000    
   0.0000000000000000       0.0000000000000000    
   0.0000000000000000       0.0000000000000000    
   0.0000000000000000       0.0000000000000000    
   0.0000000000000000       0.0000000000000000    
   0.0000000000000000       0.0000000000000000    
   0.0000000000000000       0.0000000000000000    
   0.0000000000000000       0.0000000000000000    
   0.0000000000000000       0.0000000000000000    
   0.0000000000000000       0.0000000000000000    
   0.0000000000000000       0.0000000000000000    
   0.0000000000000000       0.0000000000000000    
   0.0000000000000000       0.0000000000000000    
   0.0000000000000000       0.0000000000000000    
   1.0000000000000000       0.0000000000000000    
   0.0000000000000000       0.0000000000000000    
   0.0000000000000000       0.0000000000000000    
   0.0000000000000000       0.0000000000000000    
   0.0000000000000000       0.0000000000000000    
   0.0000000000000000       0.0000000000000000    
   0.0000000000000000       0.0000000000000000    
   0.0000000000000000       0.0000000000000000    
   0.0000000000000000       0.0000000000000000    
   0.0000000000000000       0.0000000000000000    
   0.0000000000000000       0.0000000000000000    
   0.0000000000000000       0.0000000000000000    
   0.0000000000000000       0.0000000000000000    
   0.0000000000000000       0.0000000000000000    
   0.0000000000000000       0.0000000000000000    
   0.0000000000000000       0.0000000000000000    
   0.0000000000000000       0.0000000000000000    
   0.0000000000000000       0.0000000000000000    
   0.0000000000000000       0.0000000000000000    
   0.0000000000000000       0.0000000000000000    
   0.0000000000000000       0.0000000000000000    
   0.0000000000000000       0.0000000000000000    
   0.0000000000000000       0.0000000000000000    
   0.0000000000000000       0.0000000000000000    
   0.0000000000000000       0.0000000000000000    
   0.0000000000000000       0.0000000000000000    
   0.0000000000000000       0.0000000000000000    
   0.0000000000000000       0.0000000000000000    
   0.0000000000000000       0.0000000000000000    
   1.0000000000000000       0.0000000000000000    
   0.0000000000000000       0.0000000000000000    
   0.0000000000000000       0.0000000000000000    
   0.0000000000000000       0.0000000000000000    
   0.0000000000000000       0.0000000000000000    
   0.0000000000000000       0.0000000000000000    
   0.0000000000000000       0.0000000000000000    
   0.0000000000000000       0.0000000000000000    
   0.0000000000000000       0.0000000000000000    
   0.0000000000000000       0.0000000000000000    
   0.0000000000000000       0.0000000000000000    
   0.0000000000000000       0.0000000000000000    
   0.0000000000000000       0.0000000000000000    
   0.0000000000000000       0.0000000000000000    
   0.0000000000000000       0.0000000000000000    
   0.0000000000000000       0.0000000000000000    
   0.0000000000000000       0.0000000000000000    
   0.0000000000000000       0.0000000000000000    
   0.0000000000000000       0.0000000000000000    
   0.0000000000000000       0.0000000000000000    
   0.0000000000000000       0.0000000000000000    
   0.0000000000000000       0.0000000000000000    
   0.0000000000000000       0.0000000000000000    
   0.0000000000000000       0.0000000000000000    
   0.0000000000000000       0.0000000000000000    
   0.0000000000000000       0.0000000000000000    
   0.0000000000000000       0.0000000000000000    
   0.0000000000000000       0.0000000000000000    
   0.0000000000000000       0.0000000000000000    
 -0.57857300254695546E-02 -0.44411386617798559E-01
 -0.37831340422192168E-01  0.79287533835557516E-02
 -0.76382824630523471     -0.64267826580683862    
 -0.99643877332457938E-05  0.63606343979191390E-05
  0.36900427740177961E-07 -0.52082202171445723E-07
  0.98723360863142772E-07  0.13649286424488454E-07
  0.47280939867386456E-07  0.11793705956899174E-07
  0.56286135468960688E-08  0.66571344593793692E-07
  0.15559000731071029E-02 -0.17134089847427399E-02
  0.19316140574538155E-02  0.13200324656152008E-02
 -0.22250239312189505E-02 -0.23517556279635593E-02
 -0.34567509247875941E-07  0.67609626852262381E-08
  0.32931614432858561E-03  0.31169111792698602E-02
  0.78334691832837274E-08  0.68793392862158190E-08
   0.0000000000000000       0.0000000000000000    
   0.0000000000000000       0.0000000000000000    
   0.0000000000000000       0.0000000000000000    
   0.0000000000000000       0.0000000000000000    
   0.0000000000000000       0.0000000000000000    
   0.0000000000000000       0.0000000000000000    
   0.0000000000000000       0.0000000000000000    
   0.0000000000000000       0.0000000000000000    
   0.0000000000000000       0.0000000000000000    
   0.0000000000000000       0.0000000000000000    
   0.0000000000000000       0.0000000000000000    
   0.0000000000000000       0.0000000000000000    
   0.0000000000000000       0.0000000000000000    
   0.0000000000000000       0.0000000000000000    
 -0.36846397430498881E-02 -0.28284326020026427E-01
  0.32523945419931900E-01 -0.68165484580488623E-02
 -0.13896537946895529E-04 -0.11654861930742594E-04
  0.84124838270976010     -0.53883699792493200    
  0.64436420751440657E-07  0.63578897898706364E-07
  0.26447134744413561E-07  0.17763779279260667E-07
 -0.52110563178238571E-08  0.16249800935236413E-07
 -0.84738515739636041E-07 -0.16466972955723354E-07
  0.15722002820859457E-02 -0.17313846304742322E-02
 -0.19497261516550428E-02 -0.13324133014208774E-02
 -0.25703330782447494E-02 -0.27167561017568060E-02
 -0.79470879246699519E-08 -0.87851950104047243E-08
 -0.37829689581684282E-03 -0.35803842476860308E-02
  0.73177877301863367E-08 -0.12234806731852799E-07
   0.0000000000000000       0.0000000000000000    
   0.0000000000000000       0.0000000000000000    
   0.0000000000000000       0.0000000000000000    
   0.0000000000000000       0.0000000000000000    
   0.0000000000000000       0.0000000000000000    
   0.0000000000000000       0.0000000000000000    
   0.0000000000000000       0.0000000000000000    
   0.0000000000000000       0.0000000000000000    
   0.0000000000000000       0.0000000000000000    
   0.0000000000000000       0.0000000000000000    
   0.0000000000000000       0.0000000000000000    
   0.0000000000000000       0.0000000000000000    
   0.0000000000000000       0.0000000000000000    
   0.0000000000000000       0.0000000000000000    
  0.10336676739050876      0.79359807776031543    
 -0.59962465550326555E-01  0.12564863943115815E-01
 -0.27137975941069689E-01 -0.22834758898731052E-01
  0.22833423707660203E-01 -0.14624580101054569E-01
  0.93375955079568711E-07 -0.43141293608072376E-08
 -0.48595559106122497E-07  0.14189370607960697E-06
 -0.45411104507681415E-07 -0.10433036774888246E-06
  0.24742878830213833E-06 -0.11414285642509197E-06
 -0.78777579620689273E-03  0.86752680303573868E-03
  0.52865862055361983E-05  0.36108651443609777E-05
  0.40876333739308823      0.43206711581947516    
 -0.10371223522708408E-06 -0.60020496562046677E-07
 -0.25921273585769299E-04 -0.23934136806449382E-03
  0.14473794012083754E-06  0.24611374879074830E-10
   0.0000000000000000       0.0000000000000000    
   0.0000000000000000       0.0000000000000000    
   0.0000000000000000       0.0000000000000000    
   0.0000000000000000       0.0000000000000000    
   0.0000000000000000       0.0000000000000000    
   0.0000000000000000       0.0000000000000000    
   0.0000000000000000       0.0000000000000000    
   0.0000000000000000       0.0000000000000000    
   0.0000000000000000       0.0000000000000000    
   0.0000000000000000       0.0000000000000000    
   0.0000000000000000       0.0000000000000000    
   0.0000000000000000       0.0000000000000000    
   0.0000000000000000       0.0000000000000000    
   0.0000000000000000       0.0000000000000000    
 -0.79530468353337987E-02 -0.60026777112712565E-01
 -0.78228347845948698      0.16572391882687609    
  0.27253711937467829E-01  0.22830239912380274E-01
  0.22722268297826399E-01 -0.14623505704742763E-01
  0.59036502629006827E-07  0.64618670292510982E-07
 -0.80667784391914361E-08 -0.91308785549823563E-08
 -0.38952328560443124E-07 -0.45964368863177698E-07
 -0.64789355283139824E-07  0.24889059231505990E-07
 -0.39258095135375939E-05  0.42488878412544855E-05
  0.10077582360137256E-02  0.68547252202271706E-03
  0.16272682319396127E-03  0.17220119160289715E-03
 -0.10192564475178397E-07 -0.53951739572549702E-07
  0.63878618117099023E-01  0.59230526301934638    
 -0.95343591955563129E-08  0.11858261908396146E-07
   1.0000000000000000       0.0000000000000000    
   0.0000000000000000       0.0000000000000000    
   0.0000000000000000       0.0000000000000000    
   0.0000000000000000       0.0000000000000000    
   0.0000000000000000       0.0000000000000000    
   0.0000000000000000       0.0000000000000000    
   0.0000000000000000       0.0000000000000000    
   0.0000000000000000       0.0000000000000000    
   0.0000000000000000       0.0000000000000000    
   0.0000000000000000       0.0000000000000000    
   0.0000000000000000       0.0000000000000000    
   0.0000000000000000       0.0000000000000000    
   0.0000000000000000       0.0000000000000000    
   0.0000000000000000       0.0000000000000000    
   0.0000000000000000       0.0000000000000000    
   0.0000000000000000       0.0000000000000000    
   0.0000000000000000       0.0000000000000000    
   0.0000000000000000       0.0000000000000000    
   0.0000000000000000       0.0000000000000000    
   0.0000000000000000       0.0000000000000000    
   0.0000000000000000       0.0000000000000000    
   0.0000000000000000       0.0000000000000000    
   0.0000000000000000       0.0000000000000000    
   0.0000000000000000       0.0000000000000000    
   0.0000000000000000       0.0000000000000000    
   0.0000000000000000       0.0000000000000000    
   0.0000000000000000       0.0000000000000000    
   0.0000000000000000       0.0000000000000000    
   0.0000000000000000       0.0000000000000000    
   1.0000000000000000       0.0000000000000000    
   0.0000000000000000       0.0000000000000000    
   0.0000000000000000       0.0000000000000000    
   0.0000000000000000       0.0000000000000000    
   0.0000000000000000       0.0000000000000000    
   0.0000000000000000       0.0000000000000000    
   0.0000000000000000       0.0000000000000000    
   0.0000000000000000       0.0000000000000000    
   0.0000000000000000       0.0000000000000000    
   0.0000000000000000       0.0000000000000000    
   0.0000000000000000       0.0000000000000000    
   0.0000000000000000       0.0000000000000000    
   0.0000000000000000       0.0000000000000000    
   0.0000000000000000       0.0000000000000000    
   0.0000000000000000       0.0000000000000000    
   0.0000000000000000       0.0000000000000000    
   0.0000000000000000       0.0000000000000000    
   0.0000000000000000       0.0000000000000000    
   0.0000000000000000       0.0000000000000000    
   0.0000000000000000       0.0000000000000000    
   0.0000000000000000       0.0000000000000000    
   0.0000000000000000       0.0000000000000000    
   0.0000000000000000       0.0000000000000000    
   0.0000000000000000       0.0000000000000000    
   0.0000000000000000       0.0000000000000000    
   0.0000000000000000       0.0000000000000000    
   0.0000000000000000       0.0000000000000000    
   0.0000000000000000       0.0000000000000000    
   0.0000000000000000       0.0000000000000000    
   1.0000000000000000       0.0000000000000000    
   0.0000000000000000       0.0000000000000000    
   0.0000000000000000       0.0000000000000000    
   0.0000000000000000       0.0000000000000000    
   0.0000000000000000       0.0000000000000000    
   0.0000000000000000       0.0000000000000000    
   0.0000000000000000       0.0000000000000000    
   0.0000000000000000       0.0000000000000000    
   0.0000000000000000       0.0000000000000000    
   0.0000000000000000       0.0000000000000000    
   0.0000000000000000       0.0000000000000000    
   0.0000000000000000       0.0000000000000000    
   0.0000000000000000       0.0000000000000000    
   0.0000000000000000       0.0000000000000000    
   0.0000000000000000       0.0000000000000000    
   0.0000000000000000       0.0000000000000000    
   0.0000000000000000       0.0000000000000000    
   0.0000000000000000       0.0000000000000000    
   0.0000000000000000       0.0000000000000000    
   0.0000000000000000       0.0000000000000000    
   0.0000000000000000       0.0000000000000000    
   0.0000000000000000       0.0000000000000000    
   0.0000000000000000       0.0000000000000000    
   0.0000000000000000       0.0000000000000000    
   0.0000000000000000       0.0000000000000000    
   0.0000000000000000       0.0000000000000000    
   0.0000000000000000       0.0000000000000000    
   0.0000000000000000       0.0000000000000000    
   0.0000000000000000       0.0000000000000000    
   1.0000000000000000       0.0000000000000000    
   0.0000000000000000       0.0000000000000000    
   0.0000000000000000       0.0000000000000000    
   0.0000000000000000       0.0000000000000000    
   0.0000000000000000       0.0000000000000000    
   0.0000000000000000       0.0000000000000000    
   0.0000000000000000       0.0000000000000000    
   0.0000000000000000       0.0000000000000000    
   0.0000000000000000       0.0000000000000000    
   0.0000000000000000       0.0000000000000000    
   0.0000000000000000       0.0000000000000000    
   0.0000000000000000       0.0000000000000000    
   0.0000000000000000       0.0000000000000000    
   0.0000000000000000       0.0000000000000000    
   0.0000000000000000       0.0000000000000000    
   0.0000000000000000       0.0000000000000000    
   0.0000000000000000       0.0000000000000000    
   0.0000000000000000       0.0000000000000000    
   0.0000000000000000       0.0000000000000000    
   0.0000000000000000       0.0000000000000000    
   0.0000000000000000       0.0000000000000000    
   0.0000000000000000       0.0000000000000000    
   0.0000000000000000       0.0000000000000000    
   0.0000000000000000       0.0000000000000000    
   0.0000000000000000       0.0000000000000000    
   0.0000000000000000       0.0000000000000000    
   0.0000000000000000       0.0000000000000000    
   0.0000000000000000       0.0000000000000000    
   0.0000000000000000       0.0000000000000000    
   1.0000000000000000       0.0000000000000000    
   0.0000000000000000       0.0000000000000000    
   0.0000000000000000       0.0000000000000000    
   0.0000000000000000       0.0000000000000000    
   0.0000000000000000       0.0000000000000000    
   0.0000000000000000       0.0000000000000000    
   0.0000000000000000       0.0000000000000000    
   0.0000000000000000       0.0000000000000000    
   0.0000000000000000       0.0000000000000000    
   0.0000000000000000       0.0000000000000000    
   0.0000000000000000       0.0000000000000000    
   0.0000000000000000       0.0000000000000000    
   0.0000000000000000       0.0000000000000000    
   0.0000000000000000       0.0000000000000000    
   0.0000000000000000       0.0000000000000000    
   0.0000000000000000       0.0000000000000000    
   0.0000000000000000       0.0000000000000000    
   0.0000000000000000       0.0000000000000000    
   0.0000000000000000       0.0000000000000000    
   0.0000000000000000       0.0000000000000000    
   0.0000000000000000       0.0000000000000000    
   0.0000000000000000       0.0000000000000000    
   0.0000000000000000       0.0000000000000000    
   0.0000000000000000       0.0000000000000000    
   0.0000000000000000       0.0000000000000000    
   0.0000000000000000       0.0000000000000000    
   0.0000000000000000       0.0000000000000000    
   0.0000000000000000       0.0000000000000000    
   0.0000000000000000       0.0000000000000000    
   1.0000000000000000       0.0000000000000000    
   0.0000000000000000       0.0000000000000000    
   0.0000000000000000       0.0000000000000000    
   0.0000000000000000       0.0000000000000000    
   0.0000000000000000       0.0000000000000000    
   0.0000000000000000       0.0000000000000000    
   0.0000000000000000       0.0000000000000000    
   0.0000000000000000       0.0000000000000000    
   0.0000000000000000       0.0000000000000000    
   0.0000000000000000       0.0000000000000000    
   0.0000000000000000       0.0000000000000000    
   0.0000000000000000       0.0000000000000000    
   0.0000000000000000       0.0000000000000000    
   0.0000000000000000       0.0000000000000000    
   0.0000000000000000       0.0000000000000000    
   0.0000000000000000       0.0000000000000000    
   0.0000000000000000       0.0000000000000000    
   0.0000000000000000       0.0000000000000000    
   0.0000000000000000       0.0000000000000000    
   0.0000000000000000       0.0000000000000000    
   0.0000000000000000       0.0000000000000000    
   0.0000000000000000       0.0000000000000000    
   0.0000000000000000       0.0000000000000000    
   0.0000000000000000       0.0000000000000000    
   0.0000000000000000       0.0000000000000000    
   0.0000000000000000       0.0000000000000000    
   0.0000000000000000       0.0000000000000000    
   0.0000000000000000       0.0000000000000000    
   0.0000000000000000       0.0000000000000000    
   1.0000000000000000       0.0000000000000000    
   0.0000000000000000       0.0000000000000000    
   0.0000000000000000       0.0000000000000000    
   0.0000000000000000       0.0000000000000000    
   0.0000000000000000       0.0000000000000000    
   0.0000000000000000       0.0000000000000000    
   0.0000000000000000       0.0000000000000000    
   0.0000000000000000       0.0000000000000000    
   0.0000000000000000       0.0000000000000000    
   0.0000000000000000       0.0000000000000000    
   0.0000000000000000       0.0000000000000000    
   0.0000000000000000       0.0000000000000000    
   0.0000000000000000       0.0000000000000000    
   0.0000000000000000       0.0000000000000000    
   0.0000000000000000       0.0000000000000000    
   0.0000000000000000       0.0000000000000000    
   0.0000000000000000       0.0000000000000000    
   0.0000000000000000       0.0000000000000000    
   0.0000000000000000       0.0000000000000000    
   0.0000000000000000       0.0000000000000000    
   0.0000000000000000       0.0000000000000000    
   0.0000000000000000       0.0000000000000000    
   0.0000000000000000       0.0000000000000000    
   0.0000000000000000       0.0000000000000000    
   0.0000000000000000       0.0000000000000000    
   0.0000000000000000       0.0000000000000000    
   0.0000000000000000       0.0000000000000000    
   0.0000000000000000       0.0000000000000000    
   0.0000000000000000       0.0000000000000000    
   1.0000000000000000       0.0000000000000000    
   0.0000000000000000       0.0000000000000000    
   0.0000000000000000       0.0000000000000000    
   0.0000000000000000       0.0000000000000000    
   0.0000000000000000       0.0000000000000000    
   0.0000000000000000       0.0000000000000000    
   0.0000000000000000       0.0000000000000000    
   0.0000000000000000       0.0000000000000000    
   0.0000000000000000       0.0000000000000000    
   0.0000000000000000       0.0000000000000000    
   0.0000000000000000       0.0000000000000000    
   0.0000000000000000       0.0000000000000000    
   0.0000000000000000       0.0000000000000000    
   0.0000000000000000       0.0000000000000000    
   0.0000000000000000       0.0000000000000000    
   0.0000000000000000       0.0000000000000000    
   0.0000000000000000       0.0000000000000000    
   0.0000000000000000       0.0000000000000000    
   0.0000000000000000       0.0000000000000000    
   0.0000000000000000       0.0000000000000000    
   0.0000000000000000       0.0000000000000000    
   0.0000000000000000       0.0000000000000000    
   0.0000000000000000       0.0000000000000000    
   0.0000000000000000       0.0000000000000000    
   0.0000000000000000       0.0000000000000000    
   0.0000000000000000       0.0000000000000000    
   0.0000000000000000       0.0000000000000000    
   0.0000000000000000       0.0000000000000000    
   0.0000000000000000       0.0000000000000000    
   1.0000000000000000       0.0000000000000000    
   0.0000000000000000       0.0000000000000000    
   0.0000000000000000       0.0000000000000000    
   0.0000000000000000       0.0000000000000000    
   0.0000000000000000       0.0000000000000000    
   0.0000000000000000       0.0000000000000000    
   0.0000000000000000       0.0000000000000000    
   0.0000000000000000       0.0000000000000000    
   0.0000000000000000       0.0000000000000000    
   0.0000000000000000       0.0000000000000000    
   0.0000000000000000       0.0000000000000000    
   0.0000000000000000       0.0000000000000000    
   0.0000000000000000       0.0000000000000000    
   0.0000000000000000       0.0000000000000000    
   0.0000000000000000       0.0000000000000000    
   0.0000000000000000       0.0000000000000000    
   0.0000000000000000       0.0000000000000000    
   0.0000000000000000       0.0000000000000000    
   0.0000000000000000       0.0000000000000000    
   0.0000000000000000       0.0000000000000000    
   0.0000000000000000       0.0000000000000000    
   0.0000000000000000       0.0000000000000000    
   0.0000000000000000       0.0000000000000000    
   0.0000000000000000       0.0000000000000000    
   0.0000000000000000       0.0000000000000000    
   0.0000000000000000       0.0000000000000000    
   0.0000000000000000       0.0000000000000000    
   0.0000000000000000       0.0000000000000000    
   0.0000000000000000       0.0000000000000000    
   1.0000000000000000       0.0000000000000000    
   0.0000000000000000       0.0000000000000000    
   0.0000000000000000       0.0000000000000000    
   0.0000000000000000       0.0000000000000000    
   0.0000000000000000       0.0000000000000000    
   0.0000000000000000       0.0000000000000000    
   0.0000000000000000       0.0000000000000000    
   0.0000000000000000       0.0000000000000000    
   0.0000000000000000       0.0000000000000000    
   0.0000000000000000       0.0000000000000000    
   0.0000000000000000       0.0000000000000000    
   0.0000000000000000       0.0000000000000000    
   0.0000000000000000       0.0000000000000000    
   0.0000000000000000       0.0000000000000000    
   0.0000000000000000       0.0000000000000000    
   0.0000000000000000       0.0000000000000000    
   0.0000000000000000       0.0000000000000000    
   0.0000000000000000       0.0000000000000000    
   0.0000000000000000       0.0000000000000000    
   0.0000000000000000       0.0000000000000000    
   0.0000000000000000       0.0000000000000000    
   0.0000000000000000       0.0000000000000000    
   0.0000000000000000       0.0000000000000000    
   0.0000000000000000       0.0000000000000000    
   0.0000000000000000       0.0000000000000000    
   0.0000000000000000       0.0000000000000000    
   0.0000000000000000       0.0000000000000000    
   0.0000000000000000       0.0000000000000000    
   0.0000000000000000       0.0000000000000000    
   1.0000000000000000       0.0000000000000000    
   0.0000000000000000       0.0000000000000000    
   0.0000000000000000       0.0000000000000000    
   0.0000000000000000       0.0000000000000000    
   0.0000000000000000       0.0000000000000000    
   0.0000000000000000       0.0000000000000000    
   0.0000000000000000       0.0000000000000000    
   0.0000000000000000       0.0000000000000000    
   0.0000000000000000       0.0000000000000000    
   0.0000000000000000       0.0000000000000000    
   0.0000000000000000       0.0000000000000000    
   0.0000000000000000       0.0000000000000000    
   0.0000000000000000       0.0000000000000000    
   0.0000000000000000       0.0000000000000000    
   0.0000000000000000       0.0000000000000000    
   0.0000000000000000       0.0000000000000000    
   0.0000000000000000       0.0000000000000000    
   0.0000000000000000       0.0000000000000000    
   0.0000000000000000       0.0000000000000000    
   0.0000000000000000       0.0000000000000000    
   0.0000000000000000       0.0000000000000000    
   0.0000000000000000       0.0000000000000000    
   0.0000000000000000       0.0000000000000000    
   0.0000000000000000       0.0000000000000000    
   0.0000000000000000       0.0000000000000000    
   0.0000000000000000       0.0000000000000000    
   0.0000000000000000       0.0000000000000000    
   0.0000000000000000       0.0000000000000000    
   0.0000000000000000       0.0000000000000000    
   1.0000000000000000       0.0000000000000000    
   0.0000000000000000       0.0000000000000000    
   0.0000000000000000       0.0000000000000000    
   0.0000000000000000       0.0000000000000000    
   0.0000000000000000       0.0000000000000000    
   0.0000000000000000       0.0000000000000000    
   0.0000000000000000       0.0000000000000000    
   0.0000000000000000       0.0000000000000000    
   0.0000000000000000       0.0000000000000000    
   0.0000000000000000       0.0000000000000000    
   0.0000000000000000       0.0000000000000000    
   0.0000000000000000       0.0000000000000000    
   0.0000000000000000       0.0000000000000000    
   0.0000000000000000       0.0000000000000000    
   0.0000000000000000       0.0000000000000000    
   0.0000000000000000       0.0000000000000000    
   0.0000000000000000       0.0000000000000000    
   0.0000000000000000       0.0000000000000000    
   0.0000000000000000       0.0000000000000000    
   0.0000000000000000       0.0000000000000000    
   0.0000000000000000       0.0000000000000000    
   0.0000000000000000       0.0000000000000000    
   0.0000000000000000       0.0000000000000000    
   0.0000000000000000       0.0000000000000000    
   0.0000000000000000       0.0000000000000000    
   0.0000000000000000       0.0000000000000000    
   0.0000000000000000       0.0000000000000000    
   0.0000000000000000       0.0000000000000000    
   0.0000000000000000       0.0000000000000000    
   1.0000000000000000       0.0000000000000000    
   0.0000000000000000       0.0000000000000000    
   0.0000000000000000       0.0000000000000000    
   0.0000000000000000       0.0000000000000000    
   0.0000000000000000       0.0000000000000000    
   0.0000000000000000       0.0000000000000000    
   0.0000000000000000       0.0000000000000000    
   0.0000000000000000       0.0000000000000000    
   0.0000000000000000       0.0000000000000000    
   0.0000000000000000       0.0000000000000000    
   0.0000000000000000       0.0000000000000000    
   0.0000000000000000       0.0000000000000000    
   0.0000000000000000       0.0000000000000000    
   0.0000000000000000       0.0000000000000000    
   0.0000000000000000       0.0000000000000000    
   0.0000000000000000       0.0000000000000000    
   0.0000000000000000       0.0000000000000000    
   0.0000000000000000       0.0000000000000000    
   0.0000000000000000       0.0000000000000000    
   0.0000000000000000       0.0000000000000000    
   0.0000000000000000       0.0000000000000000    
   0.0000000000000000       0.0000000000000000    
   0.0000000000000000       0.0000000000000000    
   0.0000000000000000       0.0000000000000000    
   0.0000000000000000       0.0000000000000000    
   0.0000000000000000       0.0000000000000000    
   0.0000000000000000       0.0000000000000000    
   0.0000000000000000       0.0000000000000000    
   0.0000000000000000       0.0000000000000000    
   1.0000000000000000       0.0000000000000000    
   0.0000000000000000       0.0000000000000000    
   0.0000000000000000       0.0000000000000000    
   0.0000000000000000       0.0000000000000000    
   0.0000000000000000       0.0000000000000000    
   0.0000000000000000       0.0000000000000000    
   0.0000000000000000       0.0000000000000000    
   0.0000000000000000       0.0000000000000000    
   0.0000000000000000       0.0000000000000000    
   0.0000000000000000       0.0000000000000000    
   0.0000000000000000       0.0000000000000000    
   0.0000000000000000       0.0000000000000000    
   0.0000000000000000       0.0000000000000000    
   0.0000000000000000       0.0000000000000000    
   0.0000000000000000       0.0000000000000000    
   0.0000000000000000       0.0000000000000000    
   0.0000000000000000       0.0000000000000000    
   0.0000000000000000       0.0000000000000000    
   0.0000000000000000       0.0000000000000000    
   0.0000000000000000       0.0000000000000000    
   0.0000000000000000       0.0000000000000000    
   0.0000000000000000       0.0000000000000000    
   0.0000000000000000       0.0000000000000000    
   0.0000000000000000       0.0000000000000000    
   0.0000000000000000       0.0000000000000000    
   0.0000000000000000       0.0000000000000000    
   0.0000000000000000       0.0000000000000000    
   0.0000000000000000       0.0000000000000000    
   0.0000000000000000       0.0000000000000000    
 -0.14804711782914274E-06  0.54669080894682518E-07
 -0.36962212228032407E-01 -0.46422788809457417E-01
  0.39389436945178669      0.91722168444581931    
  0.18608749833681333E-09 -0.26017445096537970E-07
  0.13125145298109702E-07 -0.11641720477389213E-06
 -0.32416949010275797E-08 -0.31328045090299951E-07
  0.22198891482243955E-07 -0.87397759050317938E-07
 -0.85689455991837349E-07 -0.38808053788905794E-07
  0.25131555693326327E-02 -0.20888968908791771E-02
 -0.34528498681301915E-07  0.24957325624284608E-07
 -0.24493107741884286E-08  0.13172829206364592E-07
 -0.95791620571641208E-08  0.21709489604197789E-07
 -0.28335605443043765E-02 -0.34085680807313815E-02
 -0.22549490279538571E-07 -0.48034792890266094E-09
   0.0000000000000000       0.0000000000000000    
   0.0000000000000000       0.0000000000000000    
   0.0000000000000000       0.0000000000000000    
   0.0000000000000000       0.0000000000000000    
   0.0000000000000000       0.0000000000000000    
   0.0000000000000000       0.0000000000000000    
   0.0000000000000000       0.0000000000000000    
   0.0000000000000000       0.0000000000000000    
   0.0000000000000000       0.0000000000000000    
   0.0000000000000000       0.0000000000000000    
   0.0000000000000000       0.0000000000000000    
   0.0000000000000000       0.0000000000000000    
   0.0000000000000000       0.0000000000000000    
   0.0000000000000000       0.0000000000000000    
 -0.31700489943766938E-01  0.30256128865667541E-01
 -0.44091018638582963E-07 -0.15274632531905460E-06
 -0.82413507829777646E-08 -0.40126449597073365E-07
  0.29968961129541893     -0.95300923396606274    
 -0.19538156706723517E-07  0.18757799320673029E-07
  0.17961420569918435E-07  0.31029395675842999E-07
  0.45922557276251003E-07 -0.13385205912518980E-07
 -0.77084673992223007E-07  0.28814233310809223E-06
 -0.25224268600078318E-07 -0.16248647484459242E-07
  0.13445644161228642E-02  0.30662458474604551E-02
  0.18185846262361053E-02  0.49664366679551021E-02
 -0.68298823347746327E-08  0.11241929311297581E-07
 -0.27749927158258835E-08 -0.18515313999216096E-07
  0.17843838518908708E-07  0.13867711155107386E-08
   0.0000000000000000       0.0000000000000000    
   0.0000000000000000       0.0000000000000000    
   0.0000000000000000       0.0000000000000000    
   0.0000000000000000       0.0000000000000000    
   0.0000000000000000       0.0000000000000000    
   0.0000000000000000       0.0000000000000000    
   0.0000000000000000       0.0000000000000000    
   0.0000000000000000       0.0000000000000000    
   0.0000000000000000       0.0000000000000000    
   0.0000000000000000       0.0000000000000000    
   0.0000000000000000       0.0000000000000000    
   0.0000000000000000       0.0000000000000000    
   0.0000000000000000       0.0000000000000000    
   0.0000000000000000       0.0000000000000000    
 -0.58087453791542321      0.55436174941823790    
  0.62130062596877014E-06  0.77095175374915047E-06
 -0.72741732488185015E-07 -0.34330642200658416E-07
 -0.11513401258941687E-01  0.36607107438087413E-01
 -0.43809543252496753E-07  0.57331207669400049E-07
 -0.12635231536336742E-06  0.49625888774765831E-07
 -0.11180736319175286E-06  0.17108527714030717E-06
 -0.65748476282425475E-07  0.11577702782052415E-06
  0.69619304517904399E-07 -0.93015262094860530E-07
  0.55522553349168227E-03  0.12662012123581166E-02
  0.20449889924374440      0.55854585480986019    
  0.11436722793512294E-06  0.39962528604411808E-07
  0.75309127911655561E-06  0.45691429502688186E-06
  0.58074229205589651E-07  0.17912170197156691E-10
   0.0000000000000000       0.0000000000000000    
   0.0000000000000000       0.0000000000000000    
   0.0000000000000000       0.0000000000000000    
   0.0000000000000000       0.0000000000000000    
   0.0000000000000000       0.0000000000000000    
   0.0000000000000000       0.0000000000000000    
   0.0000000000000000       0.0000000000000000    
   0.0000000000000000       0.0000000000000000    
   0.0000000000000000       0.0000000000000000    
   0.0000000000000000       0.0000000000000000    
   0.0000000000000000       0.0000000000000000    
   0.0000000000000000       0.0000000000000000    
   0.0000000000000000       0.0000000000000000    
   0.0000000000000000       0.0000000000000000    
  0.93214523751776088E-06 -0.22510984147925906E-06
  0.11668521813175102      0.79307250065825163    
 -0.60573482748088733E-02  0.49935210539341621E-01
  0.94098211884818489E-07 -0.15804199753444645E-06
  0.27688500762818305E-07  0.17336126897352727E-07
 -0.11427125166360551E-08  0.20015051960323241E-07
 -0.24896527228562288E-07  0.53778493291406748E-08
  0.13531564117778744E-08 -0.11810240359959985E-07
 -0.10276258180802634E-02  0.17327185190623505E-03
  0.55762368698301960E-08  0.12155806047850745E-07
  0.44087540874841145E-06 -0.79254778636391717E-06
  0.57508905524803784E-08 -0.16464566326960570E-07
  0.99140785733687231E-01  0.58741839468457568    
  0.22149812611928577E-06  0.57217862164043030E-08
   1.0000000000000000       0.0000000000000000    
   0.0000000000000000       0.0000000000000000    
   0.0000000000000000       0.0000000000000000    
   0.0000000000000000       0.0000000000000000    
   0.0000000000000000       0.0000000000000000    
   0.0000000000000000       0.0000000000000000    
   0.0000000000000000       0.0000000000000000    
   0.0000000000000000       0.0000000000000000    
   0.0000000000000000       0.0000000000000000    
   0.0000000000000000       0.0000000000000000    
   0.0000000000000000       0.0000000000000000    
   0.0000000000000000       0.0000000000000000    
   0.0000000000000000       0.0000000000000000    
   0.0000000000000000       0.0000000000000000    
   0.0000000000000000       0.0000000000000000    
   0.0000000000000000       0.0000000000000000    
   0.0000000000000000       0.0000000000000000    
   0.0000000000000000       0.0000000000000000    
   0.0000000000000000       0.0000000000000000    
   0.0000000000000000       0.0000000000000000    
   0.0000000000000000       0.0000000000000000    
   0.0000000000000000       0.0000000000000000    
   0.0000000000000000       0.0000000000000000    
   0.0000000000000000       0.0000000000000000    
[...]
 -0.77368990691736209E-01 -0.13907274041523260    
 -0.14403933101380000E-07  0.13590517462809476E-07
 -0.76984913506619915E-01  0.13868210514155691    
 -0.75788067079118213E-08 -0.31422951248196142E-07
 -0.87354887998629584E-02 -0.11402064885599798E-06
  0.69628211298652736E-03 -0.69627867237907119E-03
 -0.87356355314780528E-02  0.11584256235296709E-06
 -0.69628029479229016E-03  0.69627131162221310E-03
 -0.10381808445421772E-06 -0.80472284632521664E-08
  0.30064307255700350E-04 -0.19198248315740668E-03
  0.95430314198113385E-07 -0.18833890728991388E-07
 -0.19198525097629957E-03  0.30064236567802046E-04
  0.83449672055009083      0.44466368697328656E-07
  0.48201371383030650E-08  0.74005442834932501E-08
  0.22701827834110296E-07 -0.39142136204561287E-07
 -0.76058842452235501E-01 -0.13713007149305681    
 -0.12837673318977276E-07 -0.12265475201135043E-08
 -0.75690962260090561E-01  0.13676756195331904    
 -0.86945947202309883E-09  0.23594502192613701E-07
 -0.75690989899323338E-01 -0.13676755517064071    
 -0.32908029464750764E-07 -0.22644016471349165E-07
 -0.76058803595618646E-01  0.13713008343689506    
  0.36457834601401925E-03  0.36457133090081966E-03
 -0.10363826664228635E-01 -0.81628190218833896E-07
 -0.36456282899088735E-03 -0.36458245298970164E-03
 -0.10363834164866277E-01  0.43081476216823077E-07
 -0.13998776165543227E-03 -0.22439312633872741E-03
  0.12275204146165714E-07 -0.32926084796902772E-08
  0.22439422570969271E-03  0.13999156791220791E-03
 -0.24562553725730804E-07  0.73934983168252040E-08
  0.53234362257456326E-08 -0.11799791139750039E-08
  0.83751092955346418     -0.50533315412217548E-07
  0.76163619091131562      0.24023777192474594E-07
 -0.50944698797554279E-07  0.52164567891331331E-03
  0.80062486706694871E-01 -0.60213935244707939E-07
 -0.16396067301453995E-07 -0.10463975842949337E-02
 -0.59534906845418123E-01 -0.13259484745705966    
 -0.52457944801337964E-04 -0.10678933859540632E-03
 -0.59534881391222559E-01  0.13259475602780357    
  0.52294834988580724E-04 -0.10675724988012425E-03
 -0.59679819771679563E-01  0.13277958076593122    
  0.20517487824489209E-03  0.36285350118652891E-03
 -0.59679816514764270E-01 -0.13277967664493309    
 -0.20527809595953026E-03  0.36277115057962674E-03
  0.33656362858521596E-07  0.12191185232356545    
 -0.22542844145628736E-03  0.23134362147985361E-07
  0.25406926619927887E-01  0.12719451008522006E-06
  0.10115078636345588E-07 -0.18216817396607209E-03
  0.28323315496939754E-07 -0.12204385739826612    
  0.18610080082504457E-03 -0.30708075294032182E-07
 -0.25956054548014334E-07 -0.77036260622585751E-03
  0.76643190910255177      0.37646462853843058E-08
  0.18249995235721146E-07  0.10562237022380555E-02
  0.81344469666925018E-01  0.53973297028830689E-08
 -0.10996821329645645E-03 -0.14976859271140434E-03
 -0.59213502453264059E-01 -0.13130347398320219    
  0.10996764361656378E-03 -0.14974003268785054E-03
 -0.59213533350210290E-01  0.13130347380009236    
 -0.35101197403818624E-03 -0.96825203839208596E-04
 -0.59029899314511379E-01  0.13107304555917720    
  0.35105600596654343E-03 -0.96742190973845925E-04
 -0.59029950597600328E-01 -0.13107310434117334    
  0.46244318064021892E-03 -0.29113020507146280E-07
 -0.94943324726704429E-08  0.12115314251099160    
 -0.45083444110755467E-08  0.34837341391972485E-03
  0.24838639619709064E-01 -0.27401113426275334E-07
  0.14603259797211412E-04  0.29953651373945441E-07
  0.81247776925443054E-08 -0.12103244666166785    
  0.82203700435873467E-01 -0.21973904378831942E-08
 -0.12236853858339254E-07  0.10468931112948925E-02
  0.76025531333315488     -0.40215132268942456E-08
 -0.15482655560618434E-07 -0.52165133999866175E-03
 -0.59907881727134737E-01 -0.13299530296709719    
 -0.41391815067031667E-04 -0.14240176889369416E-03
 -0.59907926746302201E-01  0.13299531994843400    
  0.41353678144752601E-04 -0.14243567385918961E-03
 -0.59762023995719581E-01  0.13280967957441581    
 -0.29840386967178097E-03 -0.11350805636149762E-03
 -0.59761969439297867E-01 -0.13280958167206533    
  0.29838449042374622E-03 -0.11353869607603841E-03
  0.63944091241735599E-08 -0.12166270507376785    
 -0.28036285670462183E-03  0.18076428008937830E-08
  0.25899477124093771E-01 -0.14142296792737680E-06
 -0.14618359550535282E-08  0.18271129378230098E-03
  0.10321389244185765E-07  0.12153740367079646    
  0.13142998274164811E-03  0.27512879684296995E-08
  0.32513207901764710E-08 -0.10546715901873316E-02
  0.79185057279265336E-01 -0.76926287152838564E-08
  0.96932955863640296E-08  0.76993290427178254E-03
  0.76771423348794698     -0.27243615515786756E-07
 -0.86943452491958451E-04 -0.75375893637013715E-04
 -0.58739583781314449E-01 -0.13078603417945506    
  0.86903116418985595E-04 -0.75385400822972033E-04
 -0.58739578643249524E-01  0.13078603697245217    
  0.15418738440785613E-03  0.32117061804607598E-03
 -0.58922725907389471E-01  0.13101670080213279    
 -0.15419768157962994E-03  0.32119190018587443E-03
 -0.58922744075028184E-01 -0.13101671505350834    
  0.11479007760387972E-03  0.49047168464253140E-08
 -0.98888259863969177E-10 -0.12139428990527197    
  0.15944995788652395E-08 -0.34883442711862325E-03
  0.24261417067324226E-01 -0.13145284243157016E-07
 -0.33265893721824870E-03 -0.15960550961402901E-08
  0.40187958989016652E-08  0.12150923044382386    
 -0.27891136118065447E-01 -0.44747698759968937E-01
 -0.91643161391565344E-04  0.44137454196683086E-04
 -0.26020701924524998E-01 -0.44734655136733359E-01
  0.65045290811742781E-04  0.10950308963363312E-04
  0.51963602741774562     -0.52282530656152371    
 -0.28616519848015485E-03  0.62167584077403110E-05
  0.78551322034741286E-01 -0.93702894893453639E-01
  0.79915011782056232E-03  0.87247066792911564E-05
  0.66404705460291744E-01  0.55552689806103270E-01
  0.93367891691874651E-04  0.66556148257003358E-03
 -0.18827621696572883     -0.14652250467857580    
 -0.71907331929507050E-03  0.32255761337842608E-03
  0.29905792607616164E-03 -0.39376461088334234E-03
  0.93128572817359321E-04  0.91419944032759517E-04
  0.77911279542879255E-01  0.97661682588565973E-01
 -0.59504748989971435E-04 -0.23626236930056200E-03
 -0.49018814090191645E-04  0.32661523750473608E-03
 -0.65517753457342581E-04 -0.17521516603223998E-03
  0.19946875650477524E-04 -0.34204799878331457E-04
 -0.31926000470259910E-01 -0.51236054547705044E-01
 -0.53875312832624661E-04  0.64620016637301455E-04
 -0.33717860562272925E-01 -0.51303515605067455E-01
 -0.44240059492208021E-03  0.17508635890142851E-03
  0.54050215333825213     -0.50926744292896098    
  0.79381231833612891E-03 -0.27366003414981583E-04
  0.85390918075095190E-01 -0.80361020458089474E-01
  0.11042917457344406E-03  0.63607686592966387E-03
  0.60976052450773602E-01  0.50950916019495404E-01
 -0.69399961403475397E-03  0.32313156930149033E-03
 -0.18452147624176601     -0.15328246916195104    
 -0.11581359698254471E-03 -0.75315456418224673E-04
 -0.33112177141842326E-03  0.36339238675800787E-03
 -0.33778948261253537E-04 -0.27844535682039246E-03
  0.75443252063913863E-01  0.99963210484686746E-01
  0.15965451511161234E-03  0.28431423632414285E-03
  0.22805421908355233E-04 -0.24102113161812860E-03
 -0.27891101344541709E-01  0.44747731884204250E-01
  0.91698272208924145E-04  0.44099791566476400E-04
 -0.26020679092981808E-01  0.44734679387151692E-01
 -0.65003149865780526E-04  0.10934460062526308E-04
  0.78551333082010524E-01  0.93702904874217535E-01
 -0.79904924454102927E-03  0.86671833920909151E-05
  0.51963607408181856      0.52282534882350706    
  0.28619909091027725E-03  0.62106367890716342E-05
 -0.18827616507399134      0.14652253004757398    
  0.71910175331351572E-03  0.32263160820401740E-03
  0.66404734282529229E-01 -0.55552674904703434E-01
 -0.93311236399564246E-04  0.66550427816893605E-03
 -0.29899075264461434E-03 -0.39381029817313161E-03
  0.93133668238090653E-04 -0.91413013591722746E-04
  0.77911296493202470E-01 -0.97661689926277648E-01
  0.59483046129010435E-04 -0.23627352736693970E-03
  0.49211572089010489E-04  0.32636967367307763E-03
 -0.65515077812688366E-04  0.17522181582219277E-03
 -0.19978580461754086E-04 -0.34206654618500049E-04
 -0.31926015030093312E-01  0.51236046910581902E-01
  0.53900774166754644E-04  0.64629411146480001E-04
 -0.33717843543391648E-01  0.51303530993309587E-01
 -0.79371936096624943E-03 -0.27457479691273023E-04
  0.85390888772564760E-01  0.80361016313722528E-01
  0.44228887005440823E-03  0.17509082364544536E-03
  0.54050209999786047      0.50926752049350077    
  0.69404423617633001E-03  0.32311947485450616E-03
 -0.18452144327150227      0.15328247232642497    
 -0.11045070715362247E-03  0.63605414704573382E-03
  0.60976074598010049E-01 -0.50950978585496264E-01
 -0.11584782042327526E-03  0.75302710834552710E-04
  0.33112314117415934E-03  0.36339312803357598E-03
  0.33753672521347558E-04 -0.27842924321974660E-03
  0.75443312458664105E-01 -0.99963245372018672E-01
  0.15966354119107139E-03 -0.28432031882434037E-03
 -0.22809692712957872E-04 -0.24101542747824673E-03
 -0.26926942516657247E-01  0.44661730609639870E-01
 -0.84278554232702713E-05 -0.92304916802764757E-03
 -0.26984387962111205E-01  0.44818260845515379E-01
 -0.18441951570587468E-04  0.86788379206944721E-03
  0.66406075217440366E-01 -0.55551209883852114E-01
  0.92604598991602409E-04 -0.66499467571603480E-03
 -0.18827659647114595      0.14652085596429049    
 -0.71868166132153387E-03 -0.32336712853658586E-03
  0.51964258962315912      0.52281679458519692    
 -0.28563812957971881E-03 -0.56296016150013729E-05
  0.78555884341336618E-01  0.93700453310409521E-01
  0.79939150874189593E-03 -0.87382545015762703E-05
 -0.21703611342639270E-03 -0.12333217984080829E-03
  0.29659759632991368E-03 -0.29102369216319079E-04
  0.77910771537329074E-01 -0.97662682752252344E-01
 -0.59883919208972044E-04  0.23706048634395129E-03
  0.72048621479724642E-04  0.11208359518622995E-03
 -0.31425477748007628E-03  0.23844136775729138E-03
 -0.14172703491326029E-04  0.89496858120800609E-03
 -0.32863118935793884E-01  0.51361424962717180E-01
 -0.19764078928436655E-04 -0.92626620330321001E-03
 -0.32782699952037232E-01  0.51183743824125140E-01
  0.11073984129125896E-03 -0.63667179981054516E-03
  0.60974670211452163E-01 -0.50951660095409301E-01
 -0.69436097637461775E-03 -0.32238642596366747E-03
 -0.18452179496213172      0.15328384201897882    
 -0.44271597478212350E-03 -0.17567183449320280E-03
  0.54050107419562676      0.50927317894781543    
  0.79321041632696133E-03  0.27365696411159212E-04
  0.85393255928753173E-01  0.80362952996523448E-01
 -0.35247464924993319E-03  0.55943208816455165E-04
  0.22200298824886277E-03  0.11337788606930775E-03
 -0.33574284438193336E-04  0.27725273872842909E-03
  0.75443648642800218E-01 -0.99962363318392478E-01
  0.43443141250677417E-03 -0.37885258089155458E-03
 -0.77975205814591523E-04 -0.90418290630994979E-04
 -0.26926967684119604E-01 -0.44661719263063268E-01
  0.84124702490867780E-05 -0.92296484889449351E-03
 -0.26984412679806849E-01 -0.44818283937560127E-01
  0.18448302116881314E-04  0.86795709933708038E-03
 -0.18827664561278118     -0.14652090361961292    
  0.71867700646433246E-03 -0.32320456286316168E-03
  0.66406038981025622E-01  0.55551159385187461E-01
 -0.92624489160995536E-04 -0.66492946345910234E-03
  0.78555802336246150E-01 -0.93700470510556355E-01
 -0.79938765811601550E-03 -0.86784015577189381E-05
  0.51964253519768189     -0.52281686844924646    
  0.28562031947218302E-03 -0.55488500621782291E-05
  0.21716356273503056E-03 -0.12320559439758124E-03
  0.29659330241048684E-03  0.29104211085644479E-04
  0.77910768650825593E-01  0.97662687523390815E-01
  0.59887508677930389E-04  0.23705404000141700E-03
 -0.71833051484224370E-04  0.11237646461831760E-03
 -0.31425356471781343E-03 -0.23843210532829070E-03
  0.14125328252450277E-04  0.89496020009715020E-03
 -0.32863094840819090E-01 -0.51361456669250793E-01
  0.19802757568344585E-04 -0.92629167988829159E-03
 -0.32782707944605707E-01 -0.51183763515216196E-01
  0.69421787011688231E-03 -0.32238274367451305E-03
 -0.18452182622184679     -0.15328387006618402    
 -0.11065661438035069E-03 -0.63662579832888405E-03
  0.60974681757275717E-01  0.50951554632727221E-01
 -0.79321090441655936E-03  0.27360305532030810E-04
  0.85393291361297419E-01 -0.80362892717783199E-01
  0.44273112956771878E-03 -0.17565941400938696E-03
  0.54050098078713815     -0.50927326917866833    
 -0.35248374500148922E-03 -0.55944453013200355E-04
 -0.22197161939022859E-03  0.11341641140588162E-03
  0.33584020872826798E-04  0.27724843299594857E-03
  0.75443603610046747E-01  0.99962313518643375E-01
  0.43440926229055984E-03  0.37886777825823945E-03
  0.77997485478301391E-04 -0.90396661972367242E-04
 -0.14356386550703186E-07  0.23204233903687191    
 -0.15281580042485427E-03 -0.31867529148376849E-07
 -0.43736889180465052E-07 -0.23267297710538637    
  0.88249088357195322E-03  0.16983270591250180E-07
 -0.24811253548255076E-03  0.32101029168819643E-03
  0.33537196407542026E-04  0.24630183979299382E-04
  0.24814376498388514E-03  0.32089732750601466E-03
  0.33550765267717206E-04 -0.24599798208760898E-04
  0.15204781507016399E-03  0.64287780395869918E-04
 -0.12375964414569360E-03 -0.23853335610396863E-03
 -0.15200131748375345E-03  0.64396450816581939E-04
 -0.12374635002349946E-03  0.23855512566212626E-03
  0.85975087282640605     -0.12956641171334083E-06
  0.74740651792784672E-09 -0.78453946465343764E-04
 -0.13446592491028222E-06 -0.18050476372406183E-03
 -0.22865101251850090E-03  0.12888875942296678E-08
  0.80956202348565556E-01  0.70509169479260933E-08
 -0.92431581013996715E-09  0.24615727502273456E-03
 -0.55456952263297616E-03  0.44647713802925435E-07
  0.51643469761062152E-08  0.22259083916595324    
 -0.85312840199448087E-04  0.39759448490085960E-08
  0.14374474524935610E-07 -0.22201590382592293    
 -0.29097341963481216E-04 -0.23478991316774265E-04
  0.26753766665704498E-03 -0.30459264755695208E-03
 -0.29097980738199514E-04  0.23480436298153915E-04
 -0.26752106866674162E-03 -0.30461760691000026E-03
  0.10910827194687990E-03  0.25782517490121042E-03
 -0.14752776537585967E-03 -0.60577616852546283E-04
  0.10910806712879883E-03 -0.25782386172415022E-03
  0.14754593927665267E-03 -0.60548027551765296E-04
  0.49875418203751361E-08  0.97299034614980090E-04
  0.86606918884864070      0.24598865318452255E-07
  0.10900720850831083E-03  0.10972217519873223E-08
 -0.37630273592532526E-08  0.16813206265767300E-03
 -0.26703611122092092E-08  0.24286866863269590E-03
  0.75784229352432023E-01 -0.15148069748418777E-08
  0.92775712481080411E-02  0.24392683117160653E-06
  0.21882161954980999E-08  0.69692338265185108E-03
  0.81931412373313518E-02 -0.25667144784063286E-06
 -0.14057062584845726E-08 -0.69628185238328438E-03
  0.77175922394868854E-01  0.13887537258398902    
  0.17929133950090044E-03  0.17992734560206875E-03
  0.77175952170852130E-01 -0.13887535903269727    
 -0.17926696065106803E-03  0.17995161619447202E-03
  0.77175743954952164E-01 -0.13887646247982027    
  0.17991443587939685E-03 -0.17949492755112598E-03
  0.77175729637398174E-01  0.13887647323071714    
 -0.17991152938356210E-03 -0.17948349689462213E-03
 -0.12876794964105887E-06  0.22119313096047096E-03
  0.29942939490182779E-04 -0.35697202594879234E-08
  0.83449800180257017      0.23023997934784215E-07
 -0.25147457899727559E-08 -0.26326401772109482E-06
 -0.62130165622917629E-07  0.78728279749739157E-04
  0.19194772137547613E-03 -0.35734600895924717E-08
 -0.12320307944859275E-07 -0.36397855381518180E-03
  0.98380950217539821E-02 -0.17997489006227127E-07
  0.15207269090322109E-07  0.36382314652128679E-03
  0.10888459879982484E-01  0.90960265601661260E-08
  0.17578915733263277E-03  0.16080345383990440E-03
  0.75875198091067728E-01  0.13694975349928271    
 -0.17574710849440671E-03  0.16084180846731528E-03
  0.75875248438483964E-01 -0.13694976549551940    
  0.17523183829066478E-03 -0.16123798645899180E-03
  0.75875286941850126E-01 -0.13694814893366020    
 -0.17524804563385203E-03 -0.16124357610841416E-03
  0.75875215766453841E-01  0.13694808605674633    
 -0.14018542315852187E-03 -0.13164079781611379E-08
 -0.68304090175716384E-08 -0.20128723895982469E-03
  0.18583997072045041E-08  0.29444692838712907E-06
  0.83751118456986806      0.36973693019182261E-07
 -0.22448407052573697E-03 -0.21381911875746677E-08
 -0.78799056553755827E-08 -0.98689316826652848E-04
  0.74758487475134483E-07 -0.23197088284996087    
 -0.79321496684470075E-03  0.32471757601288168E-07
  0.22747065021367401E-07  0.23275151380792361    
  0.24358005689233906E-03 -0.18447650610135006E-07
 -0.26969716026726658E-03 -0.15862756690775777E-03
  0.10373681377444643E-03  0.21545303728843341E-03
  0.26992890553545831E-03 -0.15897510539171044E-03
  0.10372780395543747E-03 -0.21548115096693059E-03
  0.25560669000160126E-04  0.34781147879807437E-04
  0.37232876494498664E-03 -0.36460041750231389E-03
 -0.25311330803561897E-04  0.35193646134795326E-04
  0.37233950952250721E-03  0.36456778441635093E-03
  0.80956132182952806E-01  0.17284374567876909E-07
 -0.35801079243604915E-08 -0.24630771146863832E-03
 -0.63222218928928955E-07 -0.16846556727835430E-03
 -0.18398292750197167E-03 -0.83925214161005691E-09
  0.85974930580225595      0.10765080555225546E-06
  0.12146263405290443E-08  0.78340538115519740E-04
  0.12947121140804371E-04 -0.55843918810653161E-07
 -0.14231722785694342E-07 -0.22266576563097262    
  0.48173256035753854E-03  0.10760133707959529E-07
 -0.87774523603471916E-08  0.22194472346438451    
 -0.16892656553776129E-04 -0.54223433220336706E-04
  0.24936875716304534E-03  0.12514739843067028E-03
 -0.16902470094341927E-04  0.54226375881733852E-04
 -0.24937454087606482E-03  0.12516947634985386E-03
 -0.23781070940901070E-03  0.12605655385261279E-03
 -0.17474018823079498E-04 -0.29635098520291202E-04
 -0.23780511475087729E-03 -0.12604974317230230E-03
  0.17468181782344754E-04 -0.29626637745858995E-04
  0.12415952325237392E-08 -0.24272488160080472E-03
  0.75784148107193403E-01 -0.68453186584366807E-08
  0.15283746676438272E-03  0.36808774751631786E-09
 -0.65968932612892114E-08  0.17420142169358407E-03
 -0.13474864993742910E-08 -0.97169214864321110E-04
  0.86606737187787208      0.67677087002462670E-08
 -0.68095781212292683      0.14170362645477565E-07  0.21741469534388699E-07
 -0.66068943005392633      0.30213470596809401E-07  0.34333981885115660E-07
  0.68095780190131794     -0.22485651702935138E-07 -0.79815677762005382E-07
  0.66068942018139132     -0.19399993471003105E-07  0.64207089037481604E-08
  0.78731466016807028E-08 -0.68095775702727646      0.80281024498335407E-07
  0.14976850247830353E-07 -0.66068936971993175      0.42811473560666613E-07
 -0.16274996182327750E-07  0.68095778437046472     -0.62435252889611603E-07
  0.22851227070297409E-07  0.66068947801445732     -0.77931404982023444E-07
 -0.85715348450852651E-07 -0.95933286000868256E-07 -0.68094772878338883    
 -0.29549550315870916E-07 -0.16372162546865465E-06 -0.66069492885057912    
  0.77821136918522604E-07  0.90169176580195964E-07  0.68094781816010264    
  0.27996842139725875E-07 -0.83701646173134359E-07  0.66069491878217290    
  0.26278173205782404E-08 -0.78083288052869548E-10  0.19681351484309784E-07
  0.12813560568775123E-08 -0.79584200082683095E-09 -0.92228659227819879E-08
  0.92187333349619672E-09  0.18474153253819644E-09 -0.33492593561287564E-08
 -0.13226163718644853E-09  0.64493856257863619E-07  0.92396577874344768E-08
  0.12508678998805919E-08  0.21115468210759880E-08  0.33142780973915017E-09
 -0.10049538692965061E-07 -0.55774109096098439E-08  0.85127223193993978E-10
  0.53638783637638565    
  0.52835310353922371    
  0.53638782575591470    
  0.52835308413964444    
  0.53638785947574319    
  0.52835307187924219    
  0.53638781883012976    
  0.52835308899122158    
  0.53638786758181611    
  0.52834580880507054    
  0.53638788260601000    
  0.52834579985797925    
  0.36125315307343103    
  0.34789766536414879    
  0.36125316509330263    
  0.34789766078148771    
  0.36125637516166764    
  0.34790105311457786    
