
             +---------------------------------------------------+
             |                                                   |
             |                   WANNIER90                       |
             |                                                   |
             +---------------------------------------------------+
             |                                                   |
             |        Welcome to the Maximally-Localized         |
             |        Generalized Wannier Functions code         |
             |            http://www.wannier.org                 |
             |                                                   |
             |                                                   |
             |  Wannier90 Developer Group:                       |
             |    Giovanni Pizzi    (EPFL)                       |
             |    Valerio Vitale    (Cambridge)                  |
             |    David Vanderbilt  (Rutgers University)         |
             |    Nicola Marzari    (EPFL)                       |
             |    Ivo Souza         (Universidad del Pais Vasco) |
             |    Arash A. Mostofi  (Imperial College London)    |
             |    Jonathan R. Yates (University of Oxford)       |
             |                                                   |
             |  For the full list of Wannier90 3.x authors,      |
             |  please check the code documentation and the      |
             |  README on the GitHub page of the code            |
             |                                                   |
             |                                                   |
             |  Please cite                                      |
             |                                                   |
             |  [ref] "Wannier90 as a community code:            |
             |        new features and applications",            |
             |        G. Pizzi et al., arXiv:1907:09788 (2019)   |
             |        https://arxiv.org/abs/1907.09788           |
             |                                                   |
             |  in any publications arising from the use of      |
             |  this code. For the method please cite            |
             |                                                   |
             |  [ref] "Maximally Localized Generalised Wannier   |
             |         Functions for Composite Energy Bands"     |
             |         N. Marzari and D. Vanderbilt              |
             |         Phys. Rev. B 56 12847 (1997)              |
             |                                                   |
             |  [ref] "Maximally Localized Wannier Functions     |
             |         for Entangled Energy Bands"               |
             |         I. Souza, N. Marzari and D. Vanderbilt    |
             |         Phys. Rev. B 65 035109 (2001)             |
             |                                                   |
             |                                                   |
             | Copyright (c) 1996-2019                           |
             |        The Wannier90 Developer Group and          |
             |        individual contributors                    |
             |                                                   |
             |      Release: 3.0.0       27th February 2019      |
             |                                                   |
             | This program is free software; you can            |
             | redistribute it and/or modify it under the terms  |
             | of the GNU General Public License as published by |
             | the Free Software Foundation; either version 2 of |
             | the License, or (at your option) any later version|
             |                                                   |
             | This program is distributed in the hope that it   |
             | will be useful, but WITHOUT ANY WARRANTY; without |
             | even the implied warranty of MERCHANTABILITY or   |
             | FITNESS FOR A PARTICULAR PURPOSE. See the GNU     |
             | General Public License for more details.          |
             |                                                   |
             | You should have received a copy of the GNU General|
             | Public License along with this program; if not,   |
             | write to the Free Software Foundation, Inc.,      |
             | 675 Mass Ave, Cambridge, MA 02139, USA.           |
             |                                                   |
             +---------------------------------------------------+
             |    Execution started on 27May2020 at 22:52:18     |
             +---------------------------------------------------+
 
 ******************************************************************************
 * -> Using CODATA 2006 constant values                                       *
 *    (http://physics.nist.gov/cuu/Constants/index.html)                      *
 * -> Using Bohr value from CODATA                                            *
 ******************************************************************************
 

 Running in serial (with serial executable)

                                    ------
                                    SYSTEM
                                    ------

                              Lattice Vectors (Ang)
                    a_1     1.434996   1.434996   1.434996
                    a_2    -1.434996   1.434996   1.434996
                    a_3    -1.434996  -1.434996   1.434996

                   Unit Cell Volume:      11.81986  (Ang^3)

                        Reciprocal-Space Vectors (Ang^-1)
                    b_1     2.189269   0.000000   2.189269
                    b_2    -2.189269   2.189269   0.000000
                    b_3     0.000000  -2.189269   2.189269
  
 *----------------------------------------------------------------------------*
 |   Site       Fractional Coordinate          Cartesian Coordinate (Ang)     |
 +----------------------------------------------------------------------------+
 | Fe   1   0.00000   0.00000   0.00000   |    0.00000   0.00000   0.00000    |
 *----------------------------------------------------------------------------*
                                ------------
                                K-POINT GRID
                                ------------
  
             Grid size =  2 x  2 x  2      Total points =    8
  
  
 *---------------------------------- MAIN ------------------------------------*
 |  Number of Wannier Functions               :                18             |
 |  Number of Objective Wannier Functions     :                18             |
 |  Number of input Bloch states              :                28             |
 |  Output verbosity (1=low, 5=high)          :                 1             |
 |  Timing Level (1=low, 5=high)              :                 1             |
 |  Optimisation (0=memory, 3=speed)          :                 3             |
 |  Length Unit                               :               Ang             |
 |  Post-processing setup (write *.nnkp)      :                 F             |
 |  Using Gamma-only branch of algorithms     :                 F             |
 *----------------------------------------------------------------------------*
 *------------------------------- WANNIERISE ---------------------------------*
 |  Total number of iterations                :               200             |
 |  Number of CG steps before reset           :                 5             |
 |  Trial step length for line search         :             2.000             |
 |  Convergence tolerence                     :         0.100E-09             |
 |  Convergence window                        :                -1             |
 |  Iterations between writing output         :                 1             |
 |  Iterations between backing up to disk     :               100             |
 |  Write r^2_nm to file                      :                 F             |
 |  Write xyz WF centres to file              :                 F             |
 |  Write on-site energies <0n|H|0n> to file  :                 F             |
 |  Use guiding centre to control phases      :                 F             |
 |  Use phases for initial projections        :                 F             |
 *----------------------------------------------------------------------------*
 *------------------------------- DISENTANGLE --------------------------------*
 |  Using band disentanglement                :                 T             |
 |  Total number of iterations                :               500             |
 |  Mixing ratio                              :             1.000             |
 |  Convergence tolerence                     :         1.000E-10             |
 |  Convergence window                        :                 3             |
 *----------------------------------------------------------------------------*
 *-------------------------------- PLOTTING ----------------------------------*
 |  Plotting Hamiltonian in WF basis          :                 T             |
 *----------------------------------------------------------------------------*
 Time to read parameters        0.005 (sec)

 *---------------------------------- K-MESH ----------------------------------*
 +----------------------------------------------------------------------------+
 |                    Distance to Nearest-Neighbour Shells                    |
 |                    ------------------------------------                    |
 |          Shell             Distance (Ang^-1)          Multiplicity         |
 |          -----             -----------------          ------------         |
 |             1                   1.548047                     12            |
 |             2                   2.189269                      6            |
 |             3                   2.681296                     24            |
 |             4                   3.096094                     12            |
 |             5                   3.461538                     24            |
 |             6                   3.791925                      8            |
 |             7                   4.095747                     48            |
 |             8                   4.378538                      6            |
 |             9                   4.644140                     36            |
 |            10                   4.895354                     24            |
 |            11                   5.134290                     24            |
 |            12                   5.362592                     24            |
 +----------------------------------------------------------------------------+
 | The b-vectors are chosen automatically                                     |
 | The following shells are used:   1                                         |
 +----------------------------------------------------------------------------+
 |                        Shell   # Nearest-Neighbours                        |
 |                        -----   --------------------                        |
 |                          1              12                                 |
 +----------------------------------------------------------------------------+
 | Completeness relation is fully satisfied [Eq. (B1), PRB 56, 12847 (1997)]  |
 +----------------------------------------------------------------------------+
 |                  b_k Vectors (Ang^-1) and Weights (Ang^2)                  |
 |                  ----------------------------------------                  |
 |            No.         b_k(x)      b_k(y)      b_k(z)        w_b           |
 |            ---        --------------------------------     --------        |
 |             1         0.000000   -1.094634    1.094634     0.104321        |
 |             2        -1.094634    1.094634    0.000000     0.104321        |
 |             3        -1.094634    0.000000    1.094634     0.104321        |
 |             4         1.094634    0.000000    1.094634     0.104321        |
 |             5         0.000000    1.094634    1.094634     0.104321        |
 |             6         0.000000    1.094634   -1.094634     0.104321        |
 |             7         1.094634    1.094634    0.000000     0.104321        |
 |             8         1.094634   -1.094634    0.000000     0.104321        |
 |             9         1.094634    0.000000   -1.094634     0.104321        |
 |            10        -1.094634    0.000000   -1.094634     0.104321        |
 |            11        -1.094634   -1.094634    0.000000     0.104321        |
 |            12         0.000000   -1.094634   -1.094634     0.104321        |
 +----------------------------------------------------------------------------+
 |                           b_k Directions (Ang^-1)                          |
 |                           -----------------------                          |
 |            No.           x           y           z                         |
 |            ---        --------------------------------                     |
 |             1         0.000000   -1.094634    1.094634                     |
 |             2        -1.094634    1.094634    0.000000                     |
 |             3        -1.094634    0.000000    1.094634                     |
 |             4         1.094634    0.000000    1.094634                     |
 |             5         0.000000    1.094634    1.094634                     |
 |             6         1.094634    1.094634    0.000000                     |
 +----------------------------------------------------------------------------+
  
 Time to get kmesh              0.028 (sec)
 *============================================================================*
 |                              MEMORY ESTIMATE                               |
 |         Maximum RAM allocated during each phase of the calculation         |
 *============================================================================*
 |                        Disentanglement            1.80 Mb                  |
 |                            Wannierise:            1.28 Mb                  |
 |                          plot_wannier:            1.28 Mb                  |
 *----------------------------------------------------------------------------*
  
 Starting a new Wannier90 calculation ...


 Reading overlaps from Fe.mmn    :  Created on 27Mar2017 at 18:44:12

 Reading projections from Fe.amn :  Created on 27Mar2017 at 18:44: 4

 Time to read overlaps          0.080 (sec)

 *------------------------------- DISENTANGLE --------------------------------*
 +----------------------------------------------------------------------------+
 |                              Energy  Windows                               |
 |                              ---------------                               |
 |                   Outer:   -8.00000  to   70.00000  (eV)                   |
 |                   Inner:   -8.00000  to   30.00000  (eV)                   |
 +----------------------------------------------------------------------------+
   Number of target bands to extract:   18

                   Unitarised projection of Wannier functions                  
                   ------------------------------------------                  
   A_mn = <psi_m|g_n> --> S = A.A^+ --> U = S^-1/2.A
   In dis_project... done
   Using an inner window (linner = T)
   In dis_proj_froz... done

                   Extraction of optimally-connected subspace                  
                   ------------------------------------------                  
 +---------------------------------------------------------------------+<-- DIS
 |  Iter     Omega_I(i-1)      Omega_I(i)      Delta (frac.)    Time   |<-- DIS
 +---------------------------------------------------------------------+<-- DIS
       1       6.21590992       6.19306306       3.689E-03      0.00    <-- DIS
       2       6.19305041       6.19303797       2.009E-06      0.01    <-- DIS
       3       6.19303797       6.19303797       2.038E-10      0.02    <-- DIS
       4       6.19303797       6.19303797       4.149E-12      0.02    <-- DIS
       5       6.19303797       6.19303797       3.331E-13      0.02    <-- DIS
       6       6.19303797       6.19303797       2.931E-14      0.03    <-- DIS

             <<<      Delta < 1.000E-10  over  3 iterations     >>>
             <<< Disentanglement convergence criteria satisfied >>>

        Final Omega_I     6.19303797 (Ang^2)

 +----------------------------------------------------------------------------+

 Time to disentangle bands      0.928 (sec)

 Writing checkpoint file Fe.chk... done


 *------------------------------- WANNIERISE ---------------------------------*
 +--------------------------------------------------------------------+<-- CONV
 | Iter  Delta Spread     RMS Gradient      Spread (Ang^2)      Time  |<-- CONV
 +--------------------------------------------------------------------+<-- CONV

 ------------------------------------------------------------------------------
 Initial State
  WF centre and spread    1  ( -0.681282,  0.000000, -0.000000 )     0.56328638
  WF centre and spread    2  ( -0.661204,  0.000000,  0.000000 )     0.55605488
  WF centre and spread    3  (  0.681282, -0.000000, -0.000000 )     0.56328637
  WF centre and spread    4  (  0.661204,  0.000000,  0.000000 )     0.55605486
  WF centre and spread    5  (  0.000000, -0.681282,  0.000000 )     0.56328640
  WF centre and spread    6  (  0.000000, -0.661204, -0.000000 )     0.55605486
  WF centre and spread    7  ( -0.000000,  0.681282,  0.000000 )     0.56328636
  WF centre and spread    8  (  0.000000,  0.661204, -0.000000 )     0.55605485
  WF centre and spread    9  ( -0.000000, -0.000000, -0.681274 )     0.56328664
  WF centre and spread   10  ( -0.000000, -0.000000, -0.661207 )     0.55604635
  WF centre and spread   11  (  0.000000,  0.000000,  0.681274 )     0.56328664
  WF centre and spread   12  (  0.000000, -0.000000,  0.661207 )     0.55604634
  WF centre and spread   13  (  0.000000, -0.000000, -0.000000 )     0.40021875
  WF centre and spread   14  (  0.000000,  0.000000,  0.000000 )     0.38869573
  WF centre and spread   15  (  0.000000, -0.000000, -0.000000 )     0.40021876
  WF centre and spread   16  ( -0.000000, -0.000000, -0.000000 )     0.38869572
  WF centre and spread   17  (  0.000000,  0.000000,  0.000000 )     0.40022110
  WF centre and spread   18  (  0.000000, -0.000000,  0.000000 )     0.38869951
  Sum of centres and spreads ( -0.000000, -0.000000,  0.000000 )     9.08278049

      0     0.908E+01     0.0000000000        9.0827804916       0.04  <-- CONV
        O_D=      0.0078200 O_OD=      2.8819225 O_TOT=      9.0827805 <-- SPRD
 ------------------------------------------------------------------------------
 Cycle:      1
  WF centre and spread    1  ( -0.679398,  0.000000, -0.000000 )     0.53690369
  WF centre and spread    2  ( -0.659018,  0.000000,  0.000000 )     0.52907503
  WF centre and spread    3  (  0.679398, -0.000000, -0.000000 )     0.53690368
  WF centre and spread    4  (  0.659018,  0.000000,  0.000000 )     0.52907502
  WF centre and spread    5  (  0.000000, -0.679398,  0.000000 )     0.53690372
  WF centre and spread    6  (  0.000000, -0.659018,  0.000000 )     0.52907501
  WF centre and spread    7  ( -0.000000,  0.679398,  0.000000 )     0.53690368
  WF centre and spread    8  (  0.000000,  0.659019, -0.000000 )     0.52907501
  WF centre and spread    9  ( -0.000000, -0.000000, -0.679390 )     0.53690395
  WF centre and spread   10  ( -0.000000, -0.000000, -0.659022 )     0.52906727
  WF centre and spread   11  (  0.000000,  0.000000,  0.679390 )     0.53690395
  WF centre and spread   12  (  0.000000, -0.000000,  0.659022 )     0.52906726
  WF centre and spread   13  (  0.000000,  0.000000,  0.000000 )     0.36187507
  WF centre and spread   14  (  0.000000, -0.000000,  0.000000 )     0.34855691
  WF centre and spread   15  (  0.000000, -0.000000, -0.000000 )     0.36187508
  WF centre and spread   16  ( -0.000000, -0.000000, -0.000000 )     0.34855690
  WF centre and spread   17  (  0.000000,  0.000000,  0.000000 )     0.36187738
  WF centre and spread   18  (  0.000000, -0.000000,  0.000000 )     0.34856153
  Sum of centres and spreads ( -0.000000, -0.000000,  0.000000 )     8.52716014

      1    -0.556E+00     0.6483103530        8.5271601395       0.05  <-- CONV
        O_D=      0.0135997 O_OD=      2.3205225 O_TOT=      8.5271601 <-- SPRD
 Delta: O_D=  0.5779670E-02 O_OD= -0.5614000E+00 O_TOT= -0.5556204E+00 <-- DLTA
 ------------------------------------------------------------------------------
 Cycle:      2
  WF centre and spread    1  ( -0.681125,  0.000000, -0.000000 )     0.53635899
  WF centre and spread    2  ( -0.660909,  0.000000,  0.000000 )     0.52833654
  WF centre and spread    3  (  0.681125, -0.000000, -0.000000 )     0.53635898
  WF centre and spread    4  (  0.660909, -0.000000,  0.000000 )     0.52833652
  WF centre and spread    5  (  0.000000, -0.681125,  0.000000 )     0.53635902
  WF centre and spread    6  (  0.000000, -0.660909,  0.000000 )     0.52833652
  WF centre and spread    7  ( -0.000000,  0.681125, -0.000000 )     0.53635898
  WF centre and spread    8  (  0.000000,  0.660909, -0.000000 )     0.52833652
  WF centre and spread    9  ( -0.000000, -0.000000, -0.681116 )     0.53635925
  WF centre and spread   10  ( -0.000000, -0.000000, -0.660913 )     0.52832882
  WF centre and spread   11  (  0.000000,  0.000000,  0.681116 )     0.53635926
  WF centre and spread   12  (  0.000000, -0.000000,  0.660913 )     0.52832881
  WF centre and spread   13  (  0.000000, -0.000000,  0.000000 )     0.36134960
  WF centre and spread   14  (  0.000000, -0.000000,  0.000000 )     0.34797392
  WF centre and spread   15  (  0.000000, -0.000000, -0.000000 )     0.36134961
  WF centre and spread   16  ( -0.000000,  0.000000,  0.000000 )     0.34797392
  WF centre and spread   17  (  0.000000,  0.000000,  0.000000 )     0.36135187
  WF centre and spread   18  ( -0.000000, -0.000000,  0.000000 )     0.34797857
  Sum of centres and spreads ( -0.000000, -0.000000,  0.000000 )     8.51613571

      2    -0.110E-01     0.0990074279        8.5161357126       0.05  <-- CONV
        O_D=      0.0127676 O_OD=      2.3103301 O_TOT=      8.5161357 <-- SPRD
 Delta: O_D= -0.8320530E-03 O_OD= -0.1019237E-01 O_TOT= -0.1102443E-01 <-- DLTA
 ------------------------------------------------------------------------------
 Cycle:      3
  WF centre and spread    1  ( -0.680976,  0.000000, -0.000000 )     0.53638724
  WF centre and spread    2  ( -0.660700,  0.000000,  0.000000 )     0.52835300
  WF centre and spread    3  (  0.680976, -0.000000, -0.000000 )     0.53638723
  WF centre and spread    4  (  0.660700, -0.000000,  0.000000 )     0.52835298
  WF centre and spread    5  (  0.000000, -0.680976,  0.000000 )     0.53638727
  WF centre and spread    6  (  0.000000, -0.660700,  0.000000 )     0.52835297
  WF centre and spread    7  ( -0.000000,  0.680976, -0.000000 )     0.53638722
  WF centre and spread    8  (  0.000000,  0.660700, -0.000000 )     0.52835297
  WF centre and spread    9  ( -0.000000, -0.000000, -0.680967 )     0.53638748
  WF centre and spread   10  ( -0.000000, -0.000000, -0.660704 )     0.52834537
  WF centre and spread   11  (  0.000000,  0.000000,  0.680967 )     0.53638748
  WF centre and spread   12  (  0.000000, -0.000000,  0.660704 )     0.52834536
  WF centre and spread   13  (  0.000000, -0.000000,  0.000000 )     0.36125853
  WF centre and spread   14  (  0.000000, -0.000000,  0.000000 )     0.34790198
  WF centre and spread   15  (  0.000000, -0.000000, -0.000000 )     0.36125854
  WF centre and spread   16  ( -0.000000,  0.000000,  0.000000 )     0.34790197
  WF centre and spread   17  (  0.000000,  0.000000,  0.000000 )     0.36126073
  WF centre and spread   18  ( -0.000000, -0.000000,  0.000000 )     0.34790666
  Sum of centres and spreads ( -0.000000, -0.000000,  0.000000 )     8.51591496

      3    -0.221E-03     0.0133460461        8.5159149641       0.06  <-- CONV
        O_D=      0.0125105 O_OD=      2.3103665 O_TOT=      8.5159150 <-- SPRD
 Delta: O_D= -0.2571445E-03 O_OD=  0.3639604E-04 O_TOT= -0.2207484E-03 <-- DLTA
 ------------------------------------------------------------------------------
 Cycle:      4
  WF centre and spread    1  ( -0.680925,  0.000000, -0.000000 )     0.53638636
  WF centre and spread    2  ( -0.660664,  0.000000,  0.000000 )     0.52835120
  WF centre and spread    3  (  0.680925, -0.000000, -0.000000 )     0.53638635
  WF centre and spread    4  (  0.660664, -0.000000,  0.000000 )     0.52835118
  WF centre and spread    5  (  0.000000, -0.680925,  0.000000 )     0.53638639
  WF centre and spread    6  (  0.000000, -0.660663,  0.000000 )     0.52835117
  WF centre and spread    7  ( -0.000000,  0.680925, -0.000000 )     0.53638635
  WF centre and spread    8  (  0.000000,  0.660664, -0.000000 )     0.52835118
  WF centre and spread    9  ( -0.000000, -0.000000, -0.680915 )     0.53638652
  WF centre and spread   10  ( -0.000000, -0.000000, -0.660668 )     0.52834369
  WF centre and spread   11  (  0.000000,  0.000000,  0.680915 )     0.53638653
  WF centre and spread   12  (  0.000000, -0.000000,  0.660668 )     0.52834369
  WF centre and spread   13  (  0.000000, -0.000000,  0.000000 )     0.36125914
  WF centre and spread   14  (  0.000000, -0.000000, -0.000000 )     0.34790419
  WF centre and spread   15  (  0.000000, -0.000000, -0.000000 )     0.36125915
  WF centre and spread   16  ( -0.000000,  0.000000,  0.000000 )     0.34790419
  WF centre and spread   17  (  0.000000,  0.000000,  0.000000 )     0.36126124
  WF centre and spread   18  ( -0.000000, -0.000000,  0.000000 )     0.34790890
  Sum of centres and spreads ( -0.000000, -0.000000,  0.000000 )     8.51590741

      4    -0.756E-05     0.0017426785        8.5159074068       0.07  <-- CONV
        O_D=      0.0125084 O_OD=      2.3103611 O_TOT=      8.5159074 <-- SPRD
 Delta: O_D= -0.2092249E-05 O_OD= -0.5465056E-05 O_TOT= -0.7557305E-05 <-- DLTA
 ------------------------------------------------------------------------------
 Cycle:      5
  WF centre and spread    1  ( -0.680956,  0.000000, -0.000000 )     0.53638557
  WF centre and spread    2  ( -0.660697,  0.000000,  0.000000 )     0.52835040
  WF centre and spread    3  (  0.680956, -0.000000, -0.000000 )     0.53638556
  WF centre and spread    4  (  0.660697, -0.000000,  0.000000 )     0.52835038
  WF centre and spread    5  (  0.000000, -0.680956,  0.000000 )     0.53638559
  WF centre and spread    6  (  0.000000, -0.660697,  0.000000 )     0.52835037
  WF centre and spread    7  ( -0.000000,  0.680956, -0.000000 )     0.53638555
  WF centre and spread    8  (  0.000000,  0.660697, -0.000000 )     0.52835039
  WF centre and spread    9  ( -0.000000, -0.000000, -0.680946 )     0.53638542
  WF centre and spread   10  ( -0.000000, -0.000000, -0.660704 )     0.52834328
  WF centre and spread   11  (  0.000000,  0.000000,  0.680946 )     0.53638544
  WF centre and spread   12  (  0.000000, -0.000000,  0.660704 )     0.52834327
  WF centre and spread   13  (  0.000000, -0.000000,  0.000000 )     0.36125821
  WF centre and spread   14  (  0.000000, -0.000000, -0.000000 )     0.34790323
  WF centre and spread   15  (  0.000000, -0.000000, -0.000000 )     0.36125822
  WF centre and spread   16  ( -0.000000,  0.000000,  0.000000 )     0.34790322
  WF centre and spread   17  (  0.000000,  0.000000,  0.000000 )     0.36126020
  WF centre and spread   18  ( -0.000000, -0.000000,  0.000000 )     0.34790782
  Sum of centres and spreads ( -0.000000, -0.000000,  0.000000 )     8.51589214

      5    -0.153E-04     0.0017720800        8.5158921383       0.07  <-- CONV
        O_D=      0.0125281 O_OD=      2.3103261 O_TOT=      8.5158921 <-- SPRD
 Delta: O_D=  0.1970752E-04 O_OD= -0.3497606E-04 O_TOT= -0.1526854E-04 <-- DLTA
 ------------------------------------------------------------------------------
 Cycle:      6
  WF centre and spread    1  ( -0.680962,  0.000000, -0.000000 )     0.53638742
  WF centre and spread    2  ( -0.660694,  0.000000,  0.000000 )     0.52835243
  WF centre and spread    3  (  0.680962, -0.000000, -0.000000 )     0.53638740
  WF centre and spread    4  (  0.660694, -0.000000,  0.000000 )     0.52835241
  WF centre and spread    5  (  0.000000, -0.680962,  0.000000 )     0.53638744
  WF centre and spread    6  (  0.000000, -0.660694,  0.000000 )     0.52835239
  WF centre and spread    7  ( -0.000000,  0.680962, -0.000000 )     0.53638740
  WF centre and spread    8  (  0.000000,  0.660694, -0.000000 )     0.52835241
  WF centre and spread    9  ( -0.000000, -0.000000, -0.680951 )     0.53638731
  WF centre and spread   10  ( -0.000000, -0.000000, -0.660700 )     0.52834537
  WF centre and spread   11  (  0.000000,  0.000000,  0.680951 )     0.53638732
  WF centre and spread   12  (  0.000000, -0.000000,  0.660700 )     0.52834536
  WF centre and spread   13  (  0.000000, -0.000000,  0.000000 )     0.36125411
  WF centre and spread   14  (  0.000000, -0.000000, -0.000000 )     0.34789889
  WF centre and spread   15  (  0.000000, -0.000000, -0.000000 )     0.36125413
  WF centre and spread   16  ( -0.000000,  0.000000,  0.000000 )     0.34789888
  WF centre and spread   17  (  0.000000,  0.000000,  0.000000 )     0.36125619
  WF centre and spread   18  ( -0.000000, -0.000000,  0.000000 )     0.34790342
  Sum of centres and spreads ( -0.000000, -0.000000,  0.000000 )     8.51589028

      6    -0.186E-05     0.0012996870        8.5158902763       0.08  <-- CONV
        O_D=      0.0125186 O_OD=      2.3103337 O_TOT=      8.5158903 <-- SPRD
 Delta: O_D= -0.9452465E-05 O_OD=  0.7590425E-05 O_TOT= -0.1862040E-05 <-- DLTA
 ------------------------------------------------------------------------------
 Cycle:      7
  WF centre and spread    1  ( -0.680958,  0.000000, -0.000000 )     0.53638783
  WF centre and spread    2  ( -0.660689,  0.000000,  0.000000 )     0.52835287
  WF centre and spread    3  (  0.680958, -0.000000, -0.000000 )     0.53638781
  WF centre and spread    4  (  0.660689, -0.000000,  0.000000 )     0.52835285
  WF centre and spread    5  (  0.000000, -0.680958,  0.000000 )     0.53638785
  WF centre and spread    6  (  0.000000, -0.660689,  0.000000 )     0.52835283
  WF centre and spread    7  ( -0.000000,  0.680958, -0.000000 )     0.53638781
  WF centre and spread    8  (  0.000000,  0.660689, -0.000000 )     0.52835285
  WF centre and spread    9  ( -0.000000, -0.000000, -0.680948 )     0.53638774
  WF centre and spread   10  ( -0.000000, -0.000000, -0.660696 )     0.52834577
  WF centre and spread   11  (  0.000000,  0.000000,  0.680948 )     0.53638776
  WF centre and spread   12  (  0.000000, -0.000000,  0.660696 )     0.52834576
  WF centre and spread   13  (  0.000000, -0.000000,  0.000000 )     0.36125321
  WF centre and spread   14  (  0.000000, -0.000000, -0.000000 )     0.34789807
  WF centre and spread   15  (  0.000000, -0.000000, -0.000000 )     0.36125322
  WF centre and spread   16  ( -0.000000,  0.000000,  0.000000 )     0.34789806
  WF centre and spread   17  (  0.000000,  0.000000,  0.000000 )     0.36125533
  WF centre and spread   18  ( -0.000000, -0.000000,  0.000000 )     0.34790256
  Sum of centres and spreads ( -0.000000, -0.000000,  0.000000 )     8.51589018

      7    -0.101E-06     0.0003094012        8.5158901751       0.09  <-- CONV
        O_D=      0.0125150 O_OD=      2.3103372 O_TOT=      8.5158902 <-- SPRD
 Delta: O_D= -0.3591542E-05 O_OD=  0.3490422E-05 O_TOT= -0.1011196E-06 <-- DLTA
 ------------------------------------------------------------------------------
 Cycle:      8
  WF centre and spread    1  ( -0.680957,  0.000000, -0.000000 )     0.53638795
  WF centre and spread    2  ( -0.660689,  0.000000,  0.000000 )     0.52835304
  WF centre and spread    3  (  0.680957, -0.000000, -0.000000 )     0.53638794
  WF centre and spread    4  (  0.660689, -0.000000,  0.000000 )     0.52835302
  WF centre and spread    5  (  0.000000, -0.680957,  0.000000 )     0.53638797
  WF centre and spread    6  (  0.000000, -0.660689,  0.000000 )     0.52835301
  WF centre and spread    7  ( -0.000000,  0.680957, -0.000000 )     0.53638793
  WF centre and spread    8  (  0.000000,  0.660689, -0.000000 )     0.52835303
  WF centre and spread    9  ( -0.000000, -0.000000, -0.680947 )     0.53638790
  WF centre and spread   10  ( -0.000000, -0.000000, -0.660695 )     0.52834589
  WF centre and spread   11  (  0.000000,  0.000000,  0.680947 )     0.53638791
  WF centre and spread   12  (  0.000000, -0.000000,  0.660695 )     0.52834588
  WF centre and spread   13  (  0.000000, -0.000000,  0.000000 )     0.36125287
  WF centre and spread   14  (  0.000000, -0.000000, -0.000000 )     0.34789782
  WF centre and spread   15  (  0.000000, -0.000000, -0.000000 )     0.36125288
  WF centre and spread   16  ( -0.000000,  0.000000,  0.000000 )     0.34789782
  WF centre and spread   17  (  0.000000,  0.000000,  0.000000 )     0.36125505
  WF centre and spread   18  ( -0.000000, -0.000000,  0.000000 )     0.34790225
  Sum of centres and spreads ( -0.000000, -0.000000,  0.000000 )     8.51589016

      8    -0.108E-07     0.0000856458        8.5158901644       0.10  <-- CONV
        O_D=      0.0125138 O_OD=      2.3103384 O_TOT=      8.5158902 <-- SPRD
 Delta: O_D= -0.1219536E-05 O_OD=  0.1208763E-05 O_TOT= -0.1077283E-07 <-- DLTA
 ------------------------------------------------------------------------------
 Cycle:      9
  WF centre and spread    1  ( -0.680958,  0.000000, -0.000000 )     0.53638782
  WF centre and spread    2  ( -0.660691,  0.000000,  0.000000 )     0.52835325
  WF centre and spread    3  (  0.680958, -0.000000, -0.000000 )     0.53638781
  WF centre and spread    4  (  0.660691, -0.000000,  0.000000 )     0.52835323
  WF centre and spread    5  (  0.000000, -0.680958,  0.000000 )     0.53638785
  WF centre and spread    6  (  0.000000, -0.660691,  0.000000 )     0.52835322
  WF centre and spread    7  ( -0.000000,  0.680958, -0.000000 )     0.53638780
  WF centre and spread    8  (  0.000000,  0.660691, -0.000000 )     0.52835324
  WF centre and spread    9  ( -0.000000, -0.000000, -0.680949 )     0.53638794
  WF centre and spread   10  ( -0.000000, -0.000000, -0.660695 )     0.52834577
  WF centre and spread   11  (  0.000000,  0.000000,  0.680949 )     0.53638795
  WF centre and spread   12  (  0.000000, -0.000000,  0.660695 )     0.52834577
  WF centre and spread   13  (  0.000000, -0.000000,  0.000000 )     0.36125258
  WF centre and spread   14  (  0.000000, -0.000000, -0.000000 )     0.34789805
  WF centre and spread   15  (  0.000000,  0.000000, -0.000000 )     0.36125259
  WF centre and spread   16  ( -0.000000,  0.000000,  0.000000 )     0.34789804
  WF centre and spread   17  (  0.000000,  0.000000,  0.000000 )     0.36125516
  WF centre and spread   18  ( -0.000000, -0.000000,  0.000000 )     0.34790205
  Sum of centres and spreads ( -0.000000, -0.000000,  0.000000 )     8.51589014

      9    -0.272E-07     0.0000591407        8.5158901372       0.10  <-- CONV
        O_D=      0.0125138 O_OD=      2.3103384 O_TOT=      8.5158901 <-- SPRD
 Delta: O_D= -0.3677049E-07 O_OD=  0.9592699E-08 O_TOT= -0.2717779E-07 <-- DLTA
 ------------------------------------------------------------------------------
 Cycle:     10
  WF centre and spread    1  ( -0.680958,  0.000000, -0.000000 )     0.53638774
  WF centre and spread    2  ( -0.660690,  0.000000,  0.000000 )     0.52835319
  WF centre and spread    3  (  0.680958, -0.000000, -0.000000 )     0.53638773
  WF centre and spread    4  (  0.660690, -0.000000,  0.000000 )     0.52835317
  WF centre and spread    5  (  0.000000, -0.680957,  0.000000 )     0.53638776
  WF centre and spread    6  (  0.000000, -0.660689,  0.000000 )     0.52835316
  WF centre and spread    7  ( -0.000000,  0.680957, -0.000000 )     0.53638772
  WF centre and spread    8  (  0.000000,  0.660690, -0.000000 )     0.52835318
  WF centre and spread    9  ( -0.000000, -0.000000, -0.680948 )     0.53638787
  WF centre and spread   10  ( -0.000000, -0.000000, -0.660694 )     0.52834571
  WF centre and spread   11  (  0.000000,  0.000000,  0.680948 )     0.53638788
  WF centre and spread   12  (  0.000000, -0.000000,  0.660694 )     0.52834570
  WF centre and spread   13  (  0.000000, -0.000000,  0.000000 )     0.36125270
  WF centre and spread   14  (  0.000000, -0.000000, -0.000000 )     0.34789822
  WF centre and spread   15  (  0.000000,  0.000000, -0.000000 )     0.36125271
  WF centre and spread   16  ( -0.000000,  0.000000,  0.000000 )     0.34789821
  WF centre and spread   17  (  0.000000,  0.000000,  0.000000 )     0.36125535
  WF centre and spread   18  ( -0.000000, -0.000000,  0.000000 )     0.34790214
  Sum of centres and spreads ( -0.000000, -0.000000,  0.000000 )     8.51589013

     10    -0.519E-08     0.0000565955        8.5158901320       0.11  <-- CONV
        O_D=      0.0125145 O_OD=      2.3103377 O_TOT=      8.5158901 <-- SPRD
 Delta: O_D=  0.6825765E-06 O_OD= -0.6877693E-06 O_TOT= -0.5192744E-08 <-- DLTA
 ------------------------------------------------------------------------------
 Cycle:     11
  WF centre and spread    1  ( -0.680958,  0.000000,  0.000000 )     0.53638778
  WF centre and spread    2  ( -0.660689,  0.000000,  0.000000 )     0.52835315
  WF centre and spread    3  (  0.680958, -0.000000, -0.000000 )     0.53638777
  WF centre and spread    4  (  0.660689, -0.000000,  0.000000 )     0.52835313
  WF centre and spread    5  (  0.000000, -0.680958,  0.000000 )     0.53638780
  WF centre and spread    6  (  0.000000, -0.660689,  0.000000 )     0.52835312
  WF centre and spread    7  ( -0.000000,  0.680958, -0.000000 )     0.53638776
  WF centre and spread    8  (  0.000000,  0.660689, -0.000000 )     0.52835313
  WF centre and spread    9  ( -0.000000, -0.000000, -0.680948 )     0.53638787
  WF centre and spread   10  ( -0.000000, -0.000000, -0.660694 )     0.52834574
  WF centre and spread   11  (  0.000000,  0.000000,  0.680948 )     0.53638788
  WF centre and spread   12  (  0.000000, -0.000000,  0.660694 )     0.52834573
  WF centre and spread   13  (  0.000000, -0.000000,  0.000000 )     0.36125268
  WF centre and spread   14  (  0.000000, -0.000000, -0.000000 )     0.34789821
  WF centre and spread   15  (  0.000000,  0.000000, -0.000000 )     0.36125269
  WF centre and spread   16  ( -0.000000,  0.000000,  0.000000 )     0.34789821
  WF centre and spread   17  (  0.000000,  0.000000,  0.000000 )     0.36125536
  WF centre and spread   18  ( -0.000000, -0.000000,  0.000000 )     0.34790211
  Sum of centres and spreads ( -0.000000, -0.000000,  0.000000 )     8.51589013

     11    -0.181E-08     0.0000281228        8.5158901302       0.12  <-- CONV
        O_D=      0.0125144 O_OD=      2.3103377 O_TOT=      8.5158901 <-- SPRD
 Delta: O_D= -0.3193178E-07 O_OD=  0.3011866E-07 O_TOT= -0.1813113E-08 <-- DLTA
 ------------------------------------------------------------------------------
 Cycle:     12
  WF centre and spread    1  ( -0.680958,  0.000000,  0.000000 )     0.53638782
  WF centre and spread    2  ( -0.660690,  0.000000,  0.000000 )     0.52835312
  WF centre and spread    3  (  0.680958, -0.000000, -0.000000 )     0.53638781
  WF centre and spread    4  (  0.660689, -0.000000,  0.000000 )     0.52835311
  WF centre and spread    5  (  0.000000, -0.680958,  0.000000 )     0.53638785
  WF centre and spread    6  (  0.000000, -0.660689,  0.000000 )     0.52835309
  WF centre and spread    7  ( -0.000000,  0.680958, -0.000000 )     0.53638780
  WF centre and spread    8  (  0.000000,  0.660690, -0.000000 )     0.52835311
  WF centre and spread    9  ( -0.000000, -0.000000, -0.680948 )     0.53638788
  WF centre and spread   10  ( -0.000000, -0.000000, -0.660695 )     0.52834577
  WF centre and spread   11  (  0.000000,  0.000000,  0.680948 )     0.53638789
  WF centre and spread   12  (  0.000000, -0.000000,  0.660695 )     0.52834577
  WF centre and spread   13  (  0.000000, -0.000000,  0.000000 )     0.36125264
  WF centre and spread   14  (  0.000000, -0.000000, -0.000000 )     0.34789819
  WF centre and spread   15  (  0.000000,  0.000000, -0.000000 )     0.36125266
  WF centre and spread   16  ( -0.000000,  0.000000,  0.000000 )     0.34789819
  WF centre and spread   17  (  0.000000,  0.000000,  0.000000 )     0.36125534
  WF centre and spread   18  ( -0.000000, -0.000000,  0.000000 )     0.34790208
  Sum of centres and spreads ( -0.000000, -0.000000,  0.000000 )     8.51589013

     12    -0.892E-09     0.0000294245        8.5158901293       0.13  <-- CONV
        O_D=      0.0125143 O_OD=      2.3103378 O_TOT=      8.5158901 <-- SPRD
 Delta: O_D= -0.1110468E-06 O_OD=  0.1101553E-06 O_TOT= -0.8915730E-09 <-- DLTA
 ------------------------------------------------------------------------------
 Cycle:     13
  WF centre and spread    1  ( -0.680958,  0.000000,  0.000000 )     0.53638783
  WF centre and spread    2  ( -0.660689,  0.000000,  0.000000 )     0.52835312
  WF centre and spread    3  (  0.680958, -0.000000, -0.000000 )     0.53638782
  WF centre and spread    4  (  0.660689, -0.000000,  0.000000 )     0.52835310
  WF centre and spread    5  (  0.000000, -0.680958,  0.000000 )     0.53638785
  WF centre and spread    6  (  0.000000, -0.660689,  0.000000 )     0.52835309
  WF centre and spread    7  ( -0.000000,  0.680958, -0.000000 )     0.53638781
  WF centre and spread    8  (  0.000000,  0.660690, -0.000000 )     0.52835310
  WF centre and spread    9  ( -0.000000, -0.000000, -0.680948 )     0.53638788
  WF centre and spread   10  ( -0.000000, -0.000000, -0.660695 )     0.52834578
  WF centre and spread   11  (  0.000000,  0.000000,  0.680948 )     0.53638789
  WF centre and spread   12  (  0.000000, -0.000000,  0.660695 )     0.52834578
  WF centre and spread   13  (  0.000000, -0.000000,  0.000000 )     0.36125263
  WF centre and spread   14  (  0.000000, -0.000000, -0.000000 )     0.34789820
  WF centre and spread   15  (  0.000000,  0.000000, -0.000000 )     0.36125265
  WF centre and spread   16  ( -0.000000,  0.000000,  0.000000 )     0.34789819
  WF centre and spread   17  (  0.000000,  0.000000,  0.000000 )     0.36125533
  WF centre and spread   18  ( -0.000000, -0.000000,  0.000000 )     0.34790209
  Sum of centres and spreads ( -0.000000, -0.000000,  0.000000 )     8.51589013

     13    -0.789E-10     0.0000069627        8.5158901292       0.13  <-- CONV
        O_D=      0.0125143 O_OD=      2.3103378 O_TOT=      8.5158901 <-- SPRD
 Delta: O_D= -0.6434660E-08 O_OD=  0.6355732E-08 O_TOT= -0.7892709E-10 <-- DLTA
 ------------------------------------------------------------------------------
 Cycle:     14
  WF centre and spread    1  ( -0.680958,  0.000000,  0.000000 )     0.53638785
  WF centre and spread    2  ( -0.660689,  0.000000,  0.000000 )     0.52835309
  WF centre and spread    3  (  0.680958, -0.000000, -0.000000 )     0.53638784
  WF centre and spread    4  (  0.660689, -0.000000,  0.000000 )     0.52835307
  WF centre and spread    5  (  0.000000, -0.680958,  0.000000 )     0.53638787
  WF centre and spread    6  (  0.000000, -0.660689,  0.000000 )     0.52835306
  WF centre and spread    7  ( -0.000000,  0.680958, -0.000000 )     0.53638783
  WF centre and spread    8  (  0.000000,  0.660689, -0.000000 )     0.52835308
  WF centre and spread    9  ( -0.000000, -0.000000, -0.680948 )     0.53638786
  WF centre and spread   10  ( -0.000000, -0.000000, -0.660695 )     0.52834583
  WF centre and spread   11  (  0.000000,  0.000000,  0.680948 )     0.53638788
  WF centre and spread   12  (  0.000000, -0.000000,  0.660695 )     0.52834583
  WF centre and spread   13  (  0.000000, -0.000000,  0.000000 )     0.36125261
  WF centre and spread   14  (  0.000000, -0.000000, -0.000000 )     0.34789820
  WF centre and spread   15  (  0.000000, -0.000000, -0.000000 )     0.36125263
  WF centre and spread   16  ( -0.000000,  0.000000,  0.000000 )     0.34789819
  WF centre and spread   17  (  0.000000,  0.000000,  0.000000 )     0.36125531
  WF centre and spread   18  ( -0.000000, -0.000000,  0.000000 )     0.34790210
  Sum of centres and spreads ( -0.000000, -0.000000,  0.000000 )     8.51589013

     14    -0.276E-09     0.0000072782        8.5158901289       0.14  <-- CONV
        O_D=      0.0125143 O_OD=      2.3103379 O_TOT=      8.5158901 <-- SPRD
 Delta: O_D= -0.1548193E-07 O_OD=  0.1520597E-07 O_TOT= -0.2759695E-09 <-- DLTA
 ------------------------------------------------------------------------------
 Cycle:     15
  WF centre and spread    1  ( -0.680958,  0.000000,  0.000000 )     0.53638784
  WF centre and spread    2  ( -0.660689,  0.000000,  0.000000 )     0.52835309
  WF centre and spread    3  (  0.680958, -0.000000, -0.000000 )     0.53638783
  WF centre and spread    4  (  0.660689, -0.000000,  0.000000 )     0.52835307
  WF centre and spread    5  (  0.000000, -0.680958,  0.000000 )     0.53638787
  WF centre and spread    6  (  0.000000, -0.660689,  0.000000 )     0.52835306
  WF centre and spread    7  ( -0.000000,  0.680958, -0.000000 )     0.53638783
  WF centre and spread    8  (  0.000000,  0.660689, -0.000000 )     0.52835308
  WF centre and spread    9  ( -0.000000, -0.000000, -0.680948 )     0.53638786
  WF centre and spread   10  ( -0.000000, -0.000000, -0.660695 )     0.52834583
  WF centre and spread   11  (  0.000000,  0.000000,  0.680948 )     0.53638787
  WF centre and spread   12  (  0.000000, -0.000000,  0.660695 )     0.52834582
  WF centre and spread   13  (  0.000000, -0.000000,  0.000000 )     0.36125263
  WF centre and spread   14  (  0.000000, -0.000000, -0.000000 )     0.34789819
  WF centre and spread   15  (  0.000000, -0.000000, -0.000000 )     0.36125264
  WF centre and spread   16  ( -0.000000,  0.000000,  0.000000 )     0.34789819
  WF centre and spread   17  (  0.000000,  0.000000,  0.000000 )     0.36125533
  WF centre and spread   18  ( -0.000000, -0.000000,  0.000000 )     0.34790210
  Sum of centres and spreads ( -0.000000, -0.000000,  0.000000 )     8.51589013

     15    -0.129E-09     0.0000132134        8.5158901288       0.15  <-- CONV
        O_D=      0.0125143 O_OD=      2.3103378 O_TOT=      8.5158901 <-- SPRD
 Delta: O_D=  0.9710478E-08 O_OD= -0.9839277E-08 O_TOT= -0.1288001E-09 <-- DLTA
 ------------------------------------------------------------------------------
 Cycle:     16
  WF centre and spread    1  ( -0.680958,  0.000000,  0.000000 )     0.53638783
  WF centre and spread    2  ( -0.660689,  0.000000,  0.000000 )     0.52835310
  WF centre and spread    3  (  0.680958, -0.000000, -0.000000 )     0.53638782
  WF centre and spread    4  (  0.660689, -0.000000,  0.000000 )     0.52835308
  WF centre and spread    5  (  0.000000, -0.680958,  0.000000 )     0.53638785
  WF centre and spread    6  (  0.000000, -0.660689,  0.000000 )     0.52835307
  WF centre and spread    7  ( -0.000000,  0.680958, -0.000000 )     0.53638781
  WF centre and spread    8  (  0.000000,  0.660689, -0.000000 )     0.52835309
  WF centre and spread    9  ( -0.000000, -0.000000, -0.680948 )     0.53638786
  WF centre and spread   10  ( -0.000000, -0.000000, -0.660695 )     0.52834582
  WF centre and spread   11  (  0.000000,  0.000000,  0.680948 )     0.53638787
  WF centre and spread   12  (  0.000000, -0.000000,  0.660695 )     0.52834581
  WF centre and spread   13  (  0.000000, -0.000000,  0.000000 )     0.36125265
  WF centre and spread   14  (  0.000000, -0.000000, -0.000000 )     0.34789818
  WF centre and spread   15  (  0.000000,  0.000000, -0.000000 )     0.36125266
  WF centre and spread   16  ( -0.000000,  0.000000,  0.000000 )     0.34789817
  WF centre and spread   17  (  0.000000,  0.000000,  0.000000 )     0.36125535
  WF centre and spread   18  ( -0.000000, -0.000000,  0.000000 )     0.34790208
  Sum of centres and spreads ( -0.000000, -0.000000,  0.000000 )     8.51589013

     16    -0.534E-10     0.0000051072        8.5158901288       0.16  <-- CONV
        O_D=      0.0125143 O_OD=      2.3103378 O_TOT=      8.5158901 <-- SPRD
 Delta: O_D=  0.1636443E-07 O_OD= -0.1641782E-07 O_TOT= -0.5339373E-10 <-- DLTA
 ------------------------------------------------------------------------------
 Cycle:     17
  WF centre and spread    1  ( -0.680958,  0.000000,  0.000000 )     0.53638780
  WF centre and spread    2  ( -0.660690,  0.000000,  0.000000 )     0.52835315
  WF centre and spread    3  (  0.680958, -0.000000, -0.000000 )     0.53638779
  WF centre and spread    4  (  0.660690, -0.000000,  0.000000 )     0.52835313
  WF centre and spread    5  (  0.000000, -0.680958,  0.000000 )     0.53638782
  WF centre and spread    6  (  0.000000, -0.660690,  0.000000 )     0.52835312
  WF centre and spread    7  ( -0.000000,  0.680958, -0.000000 )     0.53638778
  WF centre and spread    8  (  0.000000,  0.660690, -0.000000 )     0.52835313
  WF centre and spread    9  ( -0.000000, -0.000000, -0.680948 )     0.53638789
  WF centre and spread   10  ( -0.000000, -0.000000, -0.660695 )     0.52834573
  WF centre and spread   11  (  0.000000,  0.000000,  0.680948 )     0.53638790
  WF centre and spread   12  (  0.000000, -0.000000,  0.660695 )     0.52834572
  WF centre and spread   13  (  0.000000, -0.000000,  0.000000 )     0.36125271
  WF centre and spread   14  (  0.000000, -0.000000, -0.000000 )     0.34789814
  WF centre and spread   15  (  0.000000,  0.000000, -0.000000 )     0.36125272
  WF centre and spread   16  ( -0.000000,  0.000000,  0.000000 )     0.34789813
  WF centre and spread   17  (  0.000000,  0.000000,  0.000000 )     0.36125543
  WF centre and spread   18  ( -0.000000, -0.000000,  0.000000 )     0.34790203
  Sum of centres and spreads ( -0.000000, -0.000000,  0.000000 )     8.51589013

     17    -0.272E-09     0.0000063383        8.5158901285       0.16  <-- CONV
        O_D=      0.0125144 O_OD=      2.3103378 O_TOT=      8.5158901 <-- SPRD
 Delta: O_D=  0.3564434E-07 O_OD= -0.3591649E-07 O_TOT= -0.2721521E-09 <-- DLTA
 ------------------------------------------------------------------------------
 Cycle:     18
  WF centre and spread    1  ( -0.680958,  0.000000,  0.000000 )     0.53638783
  WF centre and spread    2  ( -0.660690,  0.000000,  0.000000 )     0.52835313
  WF centre and spread    3  (  0.680958, -0.000000, -0.000000 )     0.53638782
  WF centre and spread    4  (  0.660690, -0.000000,  0.000000 )     0.52835311
  WF centre and spread    5  (  0.000000, -0.680958,  0.000000 )     0.53638785
  WF centre and spread    6  (  0.000000, -0.660690,  0.000000 )     0.52835310
  WF centre and spread    7  ( -0.000000,  0.680958, -0.000000 )     0.53638781
  WF centre and spread    8  (  0.000000,  0.660690, -0.000000 )     0.52835311
  WF centre and spread    9  ( -0.000000, -0.000000, -0.680948 )     0.53638791
  WF centre and spread   10  ( -0.000000, -0.000000, -0.660695 )     0.52834574
  WF centre and spread   11  (  0.000000,  0.000000,  0.680948 )     0.53638792
  WF centre and spread   12  (  0.000000, -0.000000,  0.660695 )     0.52834573
  WF centre and spread   13  (  0.000000, -0.000000,  0.000000 )     0.36125266
  WF centre and spread   14  (  0.000000, -0.000000, -0.000000 )     0.34789816
  WF centre and spread   15  (  0.000000,  0.000000, -0.000000 )     0.36125267
  WF centre and spread   16  ( -0.000000,  0.000000,  0.000000 )     0.34789816
  WF centre and spread   17  (  0.000000,  0.000000,  0.000000 )     0.36125538
  WF centre and spread   18  ( -0.000000, -0.000000,  0.000000 )     0.34790206
  Sum of centres and spreads ( -0.000000, -0.000000,  0.000000 )     8.51589013

     18    -0.241E-09     0.0000140037        8.5158901282       0.17  <-- CONV
        O_D=      0.0125143 O_OD=      2.3103378 O_TOT=      8.5158901 <-- SPRD
 Delta: O_D= -0.4248044E-07 O_OD=  0.4223924E-07 O_TOT= -0.2412097E-09 <-- DLTA
 ------------------------------------------------------------------------------
 Cycle:     19
  WF centre and spread    1  ( -0.680958,  0.000000,  0.000000 )     0.53638784
  WF centre and spread    2  ( -0.660690,  0.000000,  0.000000 )     0.52835311
  WF centre and spread    3  (  0.680958, -0.000000, -0.000000 )     0.53638783
  WF centre and spread    4  (  0.660690, -0.000000,  0.000000 )     0.52835309
  WF centre and spread    5  (  0.000000, -0.680958,  0.000000 )     0.53638786
  WF centre and spread    6  (  0.000000, -0.660689,  0.000000 )     0.52835308
  WF centre and spread    7  ( -0.000000,  0.680958, -0.000000 )     0.53638782
  WF centre and spread    8  (  0.000000,  0.660690, -0.000000 )     0.52835310
  WF centre and spread    9  ( -0.000000, -0.000000, -0.680948 )     0.53638790
  WF centre and spread   10  ( -0.000000, -0.000000, -0.660695 )     0.52834577
  WF centre and spread   11  (  0.000000,  0.000000,  0.680948 )     0.53638791
  WF centre and spread   12  (  0.000000, -0.000000,  0.660695 )     0.52834576
  WF centre and spread   13  (  0.000000, -0.000000,  0.000000 )     0.36125264
  WF centre and spread   14  (  0.000000, -0.000000, -0.000000 )     0.34789817
  WF centre and spread   15  (  0.000000,  0.000000, -0.000000 )     0.36125265
  WF centre and spread   16  ( -0.000000,  0.000000,  0.000000 )     0.34789817
  WF centre and spread   17  (  0.000000,  0.000000,  0.000000 )     0.36125536
  WF centre and spread   18  ( -0.000000, -0.000000,  0.000000 )     0.34790206
  Sum of centres and spreads ( -0.000000, -0.000000,  0.000000 )     8.51589013

     19    -0.805E-10     0.0000069305        8.5158901282       0.18  <-- CONV
        O_D=      0.0125143 O_OD=      2.3103379 O_TOT=      8.5158901 <-- SPRD
 Delta: O_D= -0.1654141E-07 O_OD=  0.1646086E-07 O_TOT= -0.8054712E-10 <-- DLTA
 ------------------------------------------------------------------------------
 Cycle:     20
  WF centre and spread    1  ( -0.680958,  0.000000,  0.000000 )     0.53638784
  WF centre and spread    2  ( -0.660689,  0.000000,  0.000000 )     0.52835310
  WF centre and spread    3  (  0.680958, -0.000000, -0.000000 )     0.53638783
  WF centre and spread    4  (  0.660689, -0.000000,  0.000000 )     0.52835308
  WF centre and spread    5  (  0.000000, -0.680958,  0.000000 )     0.53638787
  WF centre and spread    6  (  0.000000, -0.660689,  0.000000 )     0.52835306
  WF centre and spread    7  ( -0.000000,  0.680958, -0.000000 )     0.53638782
  WF centre and spread    8  (  0.000000,  0.660689, -0.000000 )     0.52835308
  WF centre and spread    9  ( -0.000000, -0.000000, -0.680948 )     0.53638786
  WF centre and spread   10  ( -0.000000, -0.000000, -0.660695 )     0.52834582
  WF centre and spread   11  (  0.000000,  0.000000,  0.680948 )     0.53638787
  WF centre and spread   12  (  0.000000, -0.000000,  0.660695 )     0.52834582
  WF centre and spread   13  (  0.000000, -0.000000,  0.000000 )     0.36125265
  WF centre and spread   14  (  0.000000, -0.000000, -0.000000 )     0.34789817
  WF centre and spread   15  (  0.000000,  0.000000, -0.000000 )     0.36125266
  WF centre and spread   16  ( -0.000000,  0.000000,  0.000000 )     0.34789816
  WF centre and spread   17  (  0.000000,  0.000000,  0.000000 )     0.36125538
  WF centre and spread   18  ( -0.000000, -0.000000,  0.000000 )     0.34790205
  Sum of centres and spreads ( -0.000000, -0.000000,  0.000000 )     8.51589013

     20    -0.100E-09     0.0000064955        8.5158901281       0.19  <-- CONV
        O_D=      0.0125143 O_OD=      2.3103378 O_TOT=      8.5158901 <-- SPRD
 Delta: O_D=  0.4714942E-08 O_OD= -0.4815231E-08 O_TOT= -0.1002896E-09 <-- DLTA
 ------------------------------------------------------------------------------
 Cycle:     21
  WF centre and spread    1  ( -0.680958,  0.000000,  0.000000 )     0.53638784
  WF centre and spread    2  ( -0.660689,  0.000000,  0.000000 )     0.52835308
  WF centre and spread    3  (  0.680958, -0.000000, -0.000000 )     0.53638782
  WF centre and spread    4  (  0.660689, -0.000000,  0.000000 )     0.52835306
  WF centre and spread    5  (  0.000000, -0.680958,  0.000000 )     0.53638786
  WF centre and spread    6  (  0.000000, -0.660689,  0.000000 )     0.52835305
  WF centre and spread    7  ( -0.000000,  0.680958, -0.000000 )     0.53638782
  WF centre and spread    8  (  0.000000,  0.660689, -0.000000 )     0.52835307
  WF centre and spread    9  ( -0.000000, -0.000000, -0.680948 )     0.53638781
  WF centre and spread   10  ( -0.000000, -0.000000, -0.660695 )     0.52834589
  WF centre and spread   11  (  0.000000,  0.000000,  0.680948 )     0.53638783
  WF centre and spread   12  (  0.000000, -0.000000,  0.660695 )     0.52834588
  WF centre and spread   13  (  0.000000, -0.000000,  0.000000 )     0.36125268
  WF centre and spread   14  (  0.000000, -0.000000, -0.000000 )     0.34789815
  WF centre and spread   15  (  0.000000, -0.000000, -0.000000 )     0.36125270
  WF centre and spread   16  ( -0.000000,  0.000000,  0.000000 )     0.34789814
  WF centre and spread   17  (  0.000000,  0.000000,  0.000000 )     0.36125542
  WF centre and spread   18  ( -0.000000, -0.000000,  0.000000 )     0.34790202
  Sum of centres and spreads ( -0.000000, -0.000000,  0.000000 )     8.51589013

     21    -0.113E-09     0.0000070463        8.5158901279       0.19  <-- CONV
        O_D=      0.0125143 O_OD=      2.3103378 O_TOT=      8.5158901 <-- SPRD
 Delta: O_D=  0.2317280E-07 O_OD= -0.2328620E-07 O_TOT= -0.1134008E-09 <-- DLTA
 ------------------------------------------------------------------------------
 Cycle:     22
  WF centre and spread    1  ( -0.680958,  0.000000,  0.000000 )     0.53638786
  WF centre and spread    2  ( -0.660689,  0.000000,  0.000000 )     0.52835303
  WF centre and spread    3  (  0.680958, -0.000000, -0.000000 )     0.53638785
  WF centre and spread    4  (  0.660689, -0.000000,  0.000000 )     0.52835301
  WF centre and spread    5  (  0.000000, -0.680958,  0.000000 )     0.53638788
  WF centre and spread    6  (  0.000000, -0.660689,  0.000000 )     0.52835299
  WF centre and spread    7  ( -0.000000,  0.680958, -0.000000 )     0.53638784
  WF centre and spread    8  (  0.000000,  0.660689, -0.000000 )     0.52835301
  WF centre and spread    9  ( -0.000000, -0.000000, -0.680948 )     0.53638776
  WF centre and spread   10  ( -0.000000, -0.000000, -0.660696 )     0.52834602
  WF centre and spread   11  (  0.000000,  0.000000,  0.680948 )     0.53638778
  WF centre and spread   12  (  0.000000, -0.000000,  0.660696 )     0.52834601
  WF centre and spread   13  (  0.000000, -0.000000,  0.000000 )     0.36125272
  WF centre and spread   14  (  0.000000, -0.000000, -0.000000 )     0.34789811
  WF centre and spread   15  (  0.000000, -0.000000, -0.000000 )     0.36125273
  WF centre and spread   16  ( -0.000000,  0.000000,  0.000000 )     0.34789810
  WF centre and spread   17  (  0.000000,  0.000000,  0.000000 )     0.36125551
  WF centre and spread   18  ( -0.000000, -0.000000,  0.000000 )     0.34790193
  Sum of centres and spreads ( -0.000000, -0.000000,  0.000000 )     8.51589013

     22    -0.714E-09     0.0000076173        8.5158901272       0.20  <-- CONV
        O_D=      0.0125143 O_OD=      2.3103378 O_TOT=      8.5158901 <-- SPRD
 Delta: O_D=  0.8273414E-08 O_OD= -0.8987418E-08 O_TOT= -0.7140031E-09 <-- DLTA
 ------------------------------------------------------------------------------
 Cycle:     23
  WF centre and spread    1  ( -0.680958,  0.000000,  0.000000 )     0.53638786
  WF centre and spread    2  ( -0.660689,  0.000000,  0.000000 )     0.52835304
  WF centre and spread    3  (  0.680958, -0.000000, -0.000000 )     0.53638785
  WF centre and spread    4  (  0.660689, -0.000000,  0.000000 )     0.52835302
  WF centre and spread    5  (  0.000000, -0.680958,  0.000000 )     0.53638788
  WF centre and spread    6  (  0.000000, -0.660689,  0.000000 )     0.52835301
  WF centre and spread    7  ( -0.000000,  0.680958, -0.000000 )     0.53638784
  WF centre and spread    8  (  0.000000,  0.660689, -0.000000 )     0.52835303
  WF centre and spread    9  ( -0.000000, -0.000000, -0.680947 )     0.53638779
  WF centre and spread   10  ( -0.000000, -0.000000, -0.660696 )     0.52834597
  WF centre and spread   11  (  0.000000,  0.000000,  0.680948 )     0.53638781
  WF centre and spread   12  (  0.000000, -0.000000,  0.660696 )     0.52834596
  WF centre and spread   13  (  0.000000, -0.000000,  0.000000 )     0.36125271
  WF centre and spread   14  (  0.000000, -0.000000, -0.000000 )     0.34789811
  WF centre and spread   15  (  0.000000, -0.000000, -0.000000 )     0.36125273
  WF centre and spread   16  ( -0.000000,  0.000000,  0.000000 )     0.34789811
  WF centre and spread   17  (  0.000000,  0.000000,  0.000000 )     0.36125550
  WF centre and spread   18  ( -0.000000, -0.000000,  0.000000 )     0.34790193
  Sum of centres and spreads ( -0.000000, -0.000000,  0.000000 )     8.51589013

     23    -0.363E-09     0.0000181325        8.5158901269       0.21  <-- CONV
        O_D=      0.0125143 O_OD=      2.3103378 O_TOT=      8.5158901 <-- SPRD
 Delta: O_D= -0.1811532E-07 O_OD=  0.1775271E-07 O_TOT= -0.3626113E-09 <-- DLTA
 ------------------------------------------------------------------------------
 Cycle:     24
  WF centre and spread    1  ( -0.680958,  0.000000,  0.000000 )     0.53638785
  WF centre and spread    2  ( -0.660689,  0.000000,  0.000000 )     0.52835306
  WF centre and spread    3  (  0.680958, -0.000000, -0.000000 )     0.53638784
  WF centre and spread    4  (  0.660689, -0.000000,  0.000000 )     0.52835304
  WF centre and spread    5  (  0.000000, -0.680958,  0.000000 )     0.53638788
  WF centre and spread    6  (  0.000000, -0.660689,  0.000000 )     0.52835303
  WF centre and spread    7  ( -0.000000,  0.680958, -0.000000 )     0.53638783
  WF centre and spread    8  (  0.000000,  0.660689, -0.000000 )     0.52835305
  WF centre and spread    9  ( -0.000000, -0.000000, -0.680947 )     0.53638782
  WF centre and spread   10  ( -0.000000, -0.000000, -0.660695 )     0.52834590
  WF centre and spread   11  (  0.000000,  0.000000,  0.680948 )     0.53638784
  WF centre and spread   12  (  0.000000, -0.000000,  0.660695 )     0.52834590
  WF centre and spread   13  (  0.000000, -0.000000,  0.000000 )     0.36125271
  WF centre and spread   14  (  0.000000, -0.000000, -0.000000 )     0.34789811
  WF centre and spread   15  (  0.000000, -0.000000, -0.000000 )     0.36125272
  WF centre and spread   16  ( -0.000000,  0.000000,  0.000000 )     0.34789810
  WF centre and spread   17  (  0.000000,  0.000000,  0.000000 )     0.36125549
  WF centre and spread   18  ( -0.000000, -0.000000,  0.000000 )     0.34790193
  Sum of centres and spreads ( -0.000000, -0.000000,  0.000000 )     8.51589013

     24    -0.147E-09     0.0000106650        8.5158901267       0.21  <-- CONV
        O_D=      0.0125143 O_OD=      2.3103378 O_TOT=      8.5158901 <-- SPRD
 Delta: O_D= -0.1117660E-07 O_OD=  0.1103004E-07 O_TOT= -0.1465619E-09 <-- DLTA
 ------------------------------------------------------------------------------
 Cycle:     25
  WF centre and spread    1  ( -0.680958,  0.000000,  0.000000 )     0.53638784
  WF centre and spread    2  ( -0.660689,  0.000000,  0.000000 )     0.52835310
  WF centre and spread    3  (  0.680958, -0.000000, -0.000000 )     0.53638783
  WF centre and spread    4  (  0.660689, -0.000000,  0.000000 )     0.52835308
  WF centre and spread    5  (  0.000000, -0.680958,  0.000000 )     0.53638786
  WF centre and spread    6  (  0.000000, -0.660689,  0.000000 )     0.52835306
  WF centre and spread    7  ( -0.000000,  0.680958, -0.000000 )     0.53638782
  WF centre and spread    8  (  0.000000,  0.660689, -0.000000 )     0.52835308
  WF centre and spread    9  ( -0.000000, -0.000000, -0.680948 )     0.53638786
  WF centre and spread   10  ( -0.000000, -0.000000, -0.660695 )     0.52834582
  WF centre and spread   11  (  0.000000,  0.000000,  0.680948 )     0.53638788
  WF centre and spread   12  (  0.000000, -0.000000,  0.660695 )     0.52834582
  WF centre and spread   13  (  0.000000, -0.000000,  0.000000 )     0.36125272
  WF centre and spread   14  (  0.000000, -0.000000, -0.000000 )     0.34789810
  WF centre and spread   15  (  0.000000, -0.000000, -0.000000 )     0.36125273
  WF centre and spread   16  ( -0.000000,  0.000000,  0.000000 )     0.34789810
  WF centre and spread   17  (  0.000000,  0.000000,  0.000000 )     0.36125550
  WF centre and spread   18  ( -0.000000, -0.000000,  0.000000 )     0.34790192
  Sum of centres and spreads ( -0.000000, -0.000000,  0.000000 )     8.51589013

     25    -0.955E-10     0.0000066358        8.5158901266       0.24  <-- CONV
        O_D=      0.0125143 O_OD=      2.3103378 O_TOT=      8.5158901 <-- SPRD
 Delta: O_D=  0.4430166E-08 O_OD= -0.4525673E-08 O_TOT= -0.9550760E-10 <-- DLTA
 ------------------------------------------------------------------------------
 Cycle:     26
  WF centre and spread    1  ( -0.680958,  0.000000,  0.000000 )     0.53638783
  WF centre and spread    2  ( -0.660690,  0.000000,  0.000000 )     0.52835313
  WF centre and spread    3  (  0.680958, -0.000000, -0.000000 )     0.53638782
  WF centre and spread    4  (  0.660690, -0.000000,  0.000000 )     0.52835311
  WF centre and spread    5  (  0.000000, -0.680958,  0.000000 )     0.53638785
  WF centre and spread    6  (  0.000000, -0.660689,  0.000000 )     0.52835309
  WF centre and spread    7  ( -0.000000,  0.680958, -0.000000 )     0.53638781
  WF centre and spread    8  (  0.000000,  0.660690, -0.000000 )     0.52835311
  WF centre and spread    9  ( -0.000000, -0.000000, -0.680948 )     0.53638790
  WF centre and spread   10  ( -0.000000, -0.000000, -0.660695 )     0.52834575
  WF centre and spread   11  (  0.000000,  0.000000,  0.680948 )     0.53638791
  WF centre and spread   12  (  0.000000, -0.000000,  0.660695 )     0.52834574
  WF centre and spread   13  (  0.000000, -0.000000,  0.000000 )     0.36125273
  WF centre and spread   14  (  0.000000, -0.000000, -0.000000 )     0.34789810
  WF centre and spread   15  (  0.000000,  0.000000, -0.000000 )     0.36125274
  WF centre and spread   16  ( -0.000000,  0.000000,  0.000000 )     0.34789809
  WF centre and spread   17  (  0.000000,  0.000000,  0.000000 )     0.36125551
  WF centre and spread   18  ( -0.000000, -0.000000,  0.000000 )     0.34790192
  Sum of centres and spreads ( -0.000000, -0.000000,  0.000000 )     8.51589013

     26    -0.753E-10     0.0000054485        8.5158901266       0.25  <-- CONV
        O_D=      0.0125143 O_OD=      2.3103378 O_TOT=      8.5158901 <-- SPRD
 Delta: O_D=  0.9490697E-08 O_OD= -0.9565994E-08 O_TOT= -0.7529621E-10 <-- DLTA
 ------------------------------------------------------------------------------
 Cycle:     27
  WF centre and spread    1  ( -0.680958,  0.000000,  0.000000 )     0.53638782
  WF centre and spread    2  ( -0.660690,  0.000000,  0.000000 )     0.52835316
  WF centre and spread    3  (  0.680958, -0.000000, -0.000000 )     0.53638781
  WF centre and spread    4  (  0.660690, -0.000000,  0.000000 )     0.52835314
  WF centre and spread    5  (  0.000000, -0.680958,  0.000000 )     0.53638784
  WF centre and spread    6  (  0.000000, -0.660690,  0.000000 )     0.52835313
  WF centre and spread    7  ( -0.000000,  0.680958, -0.000000 )     0.53638780
  WF centre and spread    8  (  0.000000,  0.660690, -0.000000 )     0.52835314
  WF centre and spread    9  ( -0.000000, -0.000000, -0.680948 )     0.53638793
  WF centre and spread   10  ( -0.000000, -0.000000, -0.660694 )     0.52834568
  WF centre and spread   11  (  0.000000,  0.000000,  0.680948 )     0.53638794
  WF centre and spread   12  (  0.000000, -0.000000,  0.660694 )     0.52834567
  WF centre and spread   13  (  0.000000, -0.000000,  0.000000 )     0.36125273
  WF centre and spread   14  (  0.000000, -0.000000, -0.000000 )     0.34789809
  WF centre and spread   15  (  0.000000,  0.000000, -0.000000 )     0.36125274
  WF centre and spread   16  ( -0.000000,  0.000000,  0.000000 )     0.34789809
  WF centre and spread   17  (  0.000000,  0.000000,  0.000000 )     0.36125552
  WF centre and spread   18  ( -0.000000, -0.000000,  0.000000 )     0.34790191
  Sum of centres and spreads ( -0.000000, -0.000000,  0.000000 )     8.51589013

     27    -0.118E-09     0.0000056901        8.5158901264       0.25  <-- CONV
        O_D=      0.0125143 O_OD=      2.3103378 O_TOT=      8.5158901 <-- SPRD
 Delta: O_D= -0.2596317E-08 O_OD=  0.2478654E-08 O_TOT= -0.1176641E-09 <-- DLTA
 ------------------------------------------------------------------------------
 Cycle:     28
  WF centre and spread    1  ( -0.680958,  0.000000,  0.000000 )     0.53638782
  WF centre and spread    2  ( -0.660690,  0.000000,  0.000000 )     0.52835315
  WF centre and spread    3  (  0.680958, -0.000000, -0.000000 )     0.53638781
  WF centre and spread    4  (  0.660690, -0.000000,  0.000000 )     0.52835313
  WF centre and spread    5  (  0.000000, -0.680958,  0.000000 )     0.53638784
  WF centre and spread    6  (  0.000000, -0.660690,  0.000000 )     0.52835312
  WF centre and spread    7  ( -0.000000,  0.680958, -0.000000 )     0.53638780
  WF centre and spread    8  (  0.000000,  0.660690, -0.000000 )     0.52835313
  WF centre and spread    9  ( -0.000000, -0.000000, -0.680948 )     0.53638792
  WF centre and spread   10  ( -0.000000, -0.000000, -0.660694 )     0.52834570
  WF centre and spread   11  (  0.000000,  0.000000,  0.680948 )     0.53638793
  WF centre and spread   12  (  0.000000, -0.000000,  0.660694 )     0.52834570
  WF centre and spread   13  (  0.000000, -0.000000,  0.000000 )     0.36125273
  WF centre and spread   14  (  0.000000, -0.000000, -0.000000 )     0.34789809
  WF centre and spread   15  (  0.000000,  0.000000, -0.000000 )     0.36125274
  WF centre and spread   16  ( -0.000000,  0.000000,  0.000000 )     0.34789808
  WF centre and spread   17  (  0.000000,  0.000000,  0.000000 )     0.36125553
  WF centre and spread   18  ( -0.000000, -0.000000,  0.000000 )     0.34790191
  Sum of centres and spreads ( -0.000000, -0.000000,  0.000000 )     8.51589013

     28    -0.946E-10     0.0000101100        8.5158901263       0.26  <-- CONV
        O_D=      0.0125143 O_OD=      2.3103378 O_TOT=      8.5158901 <-- SPRD
 Delta: O_D= -0.3218442E-08 O_OD=  0.3123825E-08 O_TOT= -0.9461587E-10 <-- DLTA
 ------------------------------------------------------------------------------
 Cycle:     29
  WF centre and spread    1  ( -0.680958,  0.000000,  0.000000 )     0.53638783
  WF centre and spread    2  ( -0.660689,  0.000000,  0.000000 )     0.52835312
  WF centre and spread    3  (  0.680958, -0.000000, -0.000000 )     0.53638782
  WF centre and spread    4  (  0.660689, -0.000000,  0.000000 )     0.52835310
  WF centre and spread    5  (  0.000000, -0.680958,  0.000000 )     0.53638785
  WF centre and spread    6  (  0.000000, -0.660689,  0.000000 )     0.52835309
  WF centre and spread    7  ( -0.000000,  0.680958, -0.000000 )     0.53638781
  WF centre and spread    8  (  0.000000,  0.660690, -0.000000 )     0.52835311
  WF centre and spread    9  ( -0.000000, -0.000000, -0.680948 )     0.53638788
  WF centre and spread   10  ( -0.000000, -0.000000, -0.660695 )     0.52834577
  WF centre and spread   11  (  0.000000,  0.000000,  0.680948 )     0.53638790
  WF centre and spread   12  (  0.000000, -0.000000,  0.660695 )     0.52834576
  WF centre and spread   13  (  0.000000, -0.000000,  0.000000 )     0.36125273
  WF centre and spread   14  (  0.000000, -0.000000, -0.000000 )     0.34789809
  WF centre and spread   15  (  0.000000,  0.000000, -0.000000 )     0.36125274
  WF centre and spread   16  ( -0.000000,  0.000000,  0.000000 )     0.34789808
  WF centre and spread   17  (  0.000000,  0.000000,  0.000000 )     0.36125553
  WF centre and spread   18  ( -0.000000, -0.000000,  0.000000 )     0.34790190
  Sum of centres and spreads ( -0.000000, -0.000000,  0.000000 )     8.51589013

     29    -0.800E-10     0.0000061610        8.5158901263       0.27  <-- CONV
        O_D=      0.0125143 O_OD=      2.3103378 O_TOT=      8.5158901 <-- SPRD
 Delta: O_D= -0.4129480E-08 O_OD=  0.4049518E-08 O_TOT= -0.7996093E-10 <-- DLTA
 ------------------------------------------------------------------------------
 Cycle:     30
  WF centre and spread    1  ( -0.680958,  0.000000,  0.000000 )     0.53638785
  WF centre and spread    2  ( -0.660689,  0.000000,  0.000000 )     0.52835308
  WF centre and spread    3  (  0.680958, -0.000000, -0.000000 )     0.53638783
  WF centre and spread    4  (  0.660689, -0.000000,  0.000000 )     0.52835306
  WF centre and spread    5  (  0.000000, -0.680958,  0.000000 )     0.53638787
  WF centre and spread    6  (  0.000000, -0.660689,  0.000000 )     0.52835305
  WF centre and spread    7  ( -0.000000,  0.680958, -0.000000 )     0.53638783
  WF centre and spread    8  (  0.000000,  0.660689, -0.000000 )     0.52835307
  WF centre and spread    9  ( -0.000000, -0.000000, -0.680948 )     0.53638783
  WF centre and spread   10  ( -0.000000, -0.000000, -0.660695 )     0.52834587
  WF centre and spread   11  (  0.000000,  0.000000,  0.680948 )     0.53638785
  WF centre and spread   12  (  0.000000, -0.000000,  0.660695 )     0.52834586
  WF centre and spread   13  (  0.000000, -0.000000,  0.000000 )     0.36125273
  WF centre and spread   14  (  0.000000, -0.000000, -0.000000 )     0.34789809
  WF centre and spread   15  (  0.000000, -0.000000, -0.000000 )     0.36125275
  WF centre and spread   16  ( -0.000000,  0.000000,  0.000000 )     0.34789808
  WF centre and spread   17  (  0.000000,  0.000000,  0.000000 )     0.36125554
  WF centre and spread   18  ( -0.000000, -0.000000,  0.000000 )     0.34790189
  Sum of centres and spreads ( -0.000000, -0.000000,  0.000000 )     8.51589013

     30    -0.884E-10     0.0000050790        8.5158901262       0.28  <-- CONV
        O_D=      0.0125143 O_OD=      2.3103378 O_TOT=      8.5158901 <-- SPRD
 Delta: O_D=  0.6226940E-08 O_OD= -0.6315336E-08 O_TOT= -0.8839685E-10 <-- DLTA
 ------------------------------------------------------------------------------
 Cycle:     31
  WF centre and spread    1  ( -0.680958,  0.000000,  0.000000 )     0.53638786
  WF centre and spread    2  ( -0.660689,  0.000000,  0.000000 )     0.52835304
  WF centre and spread    3  (  0.680958, -0.000000, -0.000000 )     0.53638785
  WF centre and spread    4  (  0.660689, -0.000000,  0.000000 )     0.52835302
  WF centre and spread    5  (  0.000000, -0.680958,  0.000000 )     0.53638788
  WF centre and spread    6  (  0.000000, -0.660689,  0.000000 )     0.52835300
  WF centre and spread    7  ( -0.000000,  0.680958, -0.000000 )     0.53638784
  WF centre and spread    8  (  0.000000,  0.660689, -0.000000 )     0.52835303
  WF centre and spread    9  ( -0.000000, -0.000000, -0.680947 )     0.53638779
  WF centre and spread   10  ( -0.000000, -0.000000, -0.660696 )     0.52834597
  WF centre and spread   11  (  0.000000,  0.000000,  0.680947 )     0.53638781
  WF centre and spread   12  (  0.000000, -0.000000,  0.660696 )     0.52834596
  WF centre and spread   13  (  0.000000, -0.000000,  0.000000 )     0.36125274
  WF centre and spread   14  (  0.000000, -0.000000, -0.000000 )     0.34789808
  WF centre and spread   15  (  0.000000, -0.000000, -0.000000 )     0.36125275
  WF centre and spread   16  ( -0.000000,  0.000000,  0.000000 )     0.34789807
  WF centre and spread   17  (  0.000000,  0.000000,  0.000000 )     0.36125556
  WF centre and spread   18  ( -0.000000, -0.000000,  0.000000 )     0.34790187
  Sum of centres and spreads ( -0.000000, -0.000000,  0.000000 )     8.51589013

     31    -0.114E-09     0.0000065407        8.5158901261       0.28  <-- CONV
        O_D=      0.0125143 O_OD=      2.3103378 O_TOT=      8.5158901 <-- SPRD
 Delta: O_D=  0.7236382E-09 O_OD= -0.8374959E-09 O_TOT= -0.1138574E-09 <-- DLTA
 ------------------------------------------------------------------------------
 Cycle:     32
  WF centre and spread    1  ( -0.680958,  0.000000,  0.000000 )     0.53638788
  WF centre and spread    2  ( -0.660689,  0.000000,  0.000000 )     0.52835298
  WF centre and spread    3  (  0.680958, -0.000000, -0.000000 )     0.53638787
  WF centre and spread    4  (  0.660689, -0.000000,  0.000000 )     0.52835296
  WF centre and spread    5  (  0.000000, -0.680958,  0.000000 )     0.53638790
  WF centre and spread    6  (  0.000000, -0.660689,  0.000000 )     0.52835294
  WF centre and spread    7  ( -0.000000,  0.680958, -0.000000 )     0.53638786
  WF centre and spread    8  (  0.000000,  0.660689, -0.000000 )     0.52835297
  WF centre and spread    9  ( -0.000000, -0.000000, -0.680947 )     0.53638774
  WF centre and spread   10  ( -0.000000, -0.000000, -0.660696 )     0.52834610
  WF centre and spread   11  (  0.000000,  0.000000,  0.680947 )     0.53638776
  WF centre and spread   12  (  0.000000, -0.000000,  0.660696 )     0.52834609
  WF centre and spread   13  (  0.000000, -0.000000,  0.000000 )     0.36125277
  WF centre and spread   14  (  0.000000, -0.000000, -0.000000 )     0.34789805
  WF centre and spread   15  (  0.000000, -0.000000, -0.000000 )     0.36125278
  WF centre and spread   16  ( -0.000000,  0.000000,  0.000000 )     0.34789805
  WF centre and spread   17  (  0.000000,  0.000000,  0.000000 )     0.36125561
  WF centre and spread   18  ( -0.000000, -0.000000,  0.000000 )     0.34790182
  Sum of centres and spreads ( -0.000000, -0.000000,  0.000000 )     8.51589013

     32    -0.287E-09     0.0000093306        8.5158901258       0.29  <-- CONV
        O_D=      0.0125143 O_OD=      2.3103378 O_TOT=      8.5158901 <-- SPRD
 Delta: O_D= -0.9177134E-08 O_OD=  0.8889900E-08 O_TOT= -0.2872333E-09 <-- DLTA
 ------------------------------------------------------------------------------
 Cycle:     33
  WF centre and spread    1  ( -0.680958,  0.000000,  0.000000 )     0.53638787
  WF centre and spread    2  ( -0.660689,  0.000000,  0.000000 )     0.52835301
  WF centre and spread    3  (  0.680958, -0.000000, -0.000000 )     0.53638786
  WF centre and spread    4  (  0.660689, -0.000000,  0.000000 )     0.52835298
  WF centre and spread    5  (  0.000000, -0.680958,  0.000000 )     0.53638789
  WF centre and spread    6  (  0.000000, -0.660689,  0.000000 )     0.52835297
  WF centre and spread    7  ( -0.000000,  0.680958, -0.000000 )     0.53638786
  WF centre and spread    8  (  0.000000,  0.660689, -0.000000 )     0.52835299
  WF centre and spread    9  ( -0.000000, -0.000000, -0.680947 )     0.53638776
  WF centre and spread   10  ( -0.000000, -0.000000, -0.660696 )     0.52834604
  WF centre and spread   11  (  0.000000,  0.000000,  0.680947 )     0.53638778
  WF centre and spread   12  (  0.000000, -0.000000,  0.660696 )     0.52834603
  WF centre and spread   13  (  0.000000, -0.000000,  0.000000 )     0.36125277
  WF centre and spread   14  (  0.000000, -0.000000, -0.000000 )     0.34789805
  WF centre and spread   15  (  0.000000, -0.000000, -0.000000 )     0.36125278
  WF centre and spread   16  ( -0.000000,  0.000000,  0.000000 )     0.34789805
  WF centre and spread   17  (  0.000000,  0.000000,  0.000000 )     0.36125561
  WF centre and spread   18  ( -0.000000, -0.000000,  0.000000 )     0.34790182
[...]
 Cycle:    192
  WF centre and spread    1  ( -0.680958,  0.000000,  0.000000 )     0.53638784
  WF centre and spread    2  ( -0.660689,  0.000000,  0.000000 )     0.52835311
  WF centre and spread    3  (  0.680958, -0.000000, -0.000000 )     0.53638783
  WF centre and spread    4  (  0.660689, -0.000000,  0.000000 )     0.52835310
  WF centre and spread    5  (  0.000000, -0.680958,  0.000000 )     0.53638786
  WF centre and spread    6  (  0.000000, -0.660689,  0.000000 )     0.52835310
  WF centre and spread    7  ( -0.000000,  0.680958, -0.000000 )     0.53638782
  WF centre and spread    8  (  0.000000,  0.660689, -0.000000 )     0.52835308
  WF centre and spread    9  ( -0.000000, -0.000000, -0.680948 )     0.53638787
  WF centre and spread   10  ( -0.000000, -0.000000, -0.660695 )     0.52834579
  WF centre and spread   11  (  0.000000,  0.000000,  0.680948 )     0.53638788
  WF centre and spread   12  (  0.000000, -0.000000,  0.660695 )     0.52834578
  WF centre and spread   13  (  0.000000, -0.000000,  0.000000 )     0.36125317
  WF centre and spread   14  ( -0.000000, -0.000000, -0.000000 )     0.34789764
  WF centre and spread   15  (  0.000000,  0.000000, -0.000000 )     0.36125319
  WF centre and spread   16  ( -0.000000,  0.000000,  0.000000 )     0.34789764
  WF centre and spread   17  (  0.000000,  0.000000,  0.000000 )     0.36125642
  WF centre and spread   18  ( -0.000000,  0.000000,  0.000000 )     0.34790101
  Sum of centres and spreads ( -0.000000, -0.000000,  0.000000 )     8.51589012

    192    -0.119E-11     0.0000008308        8.5158901204       1.72  <-- CONV
        O_D=      0.0125143 O_OD=      2.3103378 O_TOT=      8.5158901 <-- SPRD
 Delta: O_D= -0.1493830E-08 O_OD=  0.1492639E-08 O_TOT= -0.1190159E-11 <-- DLTA
 ------------------------------------------------------------------------------
 Cycle:    193
  WF centre and spread    1  ( -0.680958,  0.000000,  0.000000 )     0.53638784
  WF centre and spread    2  ( -0.660689,  0.000000,  0.000000 )     0.52835311
  WF centre and spread    3  (  0.680958, -0.000000, -0.000000 )     0.53638783
  WF centre and spread    4  (  0.660689, -0.000000,  0.000000 )     0.52835309
  WF centre and spread    5  (  0.000000, -0.680958,  0.000000 )     0.53638786
  WF centre and spread    6  (  0.000000, -0.660689,  0.000000 )     0.52835310
  WF centre and spread    7  ( -0.000000,  0.680958, -0.000000 )     0.53638782
  WF centre and spread    8  (  0.000000,  0.660689, -0.000000 )     0.52835308
  WF centre and spread    9  ( -0.000000, -0.000000, -0.680948 )     0.53638787
  WF centre and spread   10  ( -0.000000, -0.000000, -0.660695 )     0.52834579
  WF centre and spread   11  (  0.000000,  0.000000,  0.680948 )     0.53638788
  WF centre and spread   12  (  0.000000, -0.000000,  0.660695 )     0.52834579
  WF centre and spread   13  (  0.000000, -0.000000,  0.000000 )     0.36125317
  WF centre and spread   14  ( -0.000000, -0.000000, -0.000000 )     0.34789764
  WF centre and spread   15  (  0.000000,  0.000000, -0.000000 )     0.36125319
  WF centre and spread   16  ( -0.000000,  0.000000,  0.000000 )     0.34789764
  WF centre and spread   17  (  0.000000,  0.000000,  0.000000 )     0.36125642
  WF centre and spread   18  ( -0.000000,  0.000000,  0.000000 )     0.34790101
  Sum of centres and spreads ( -0.000000, -0.000000,  0.000000 )     8.51589012

    193    -0.224E-12     0.0000008828        8.5158901204       1.77  <-- CONV
        O_D=      0.0125143 O_OD=      2.3103378 O_TOT=      8.5158901 <-- SPRD
 Delta: O_D=  0.2656391E-10 O_OD= -0.2678835E-10 O_TOT= -0.2238210E-12 <-- DLTA
 ------------------------------------------------------------------------------
 Cycle:    194
  WF centre and spread    1  ( -0.680958,  0.000000,  0.000000 )     0.53638784
  WF centre and spread    2  ( -0.660689,  0.000000,  0.000000 )     0.52835310
  WF centre and spread    3  (  0.680958, -0.000000, -0.000000 )     0.53638782
  WF centre and spread    4  (  0.660689, -0.000000,  0.000000 )     0.52835308
  WF centre and spread    5  (  0.000000, -0.680958,  0.000000 )     0.53638786
  WF centre and spread    6  (  0.000000, -0.660689,  0.000000 )     0.52835306
  WF centre and spread    7  ( -0.000000,  0.680958, -0.000000 )     0.53638782
  WF centre and spread    8  (  0.000000,  0.660689, -0.000000 )     0.52835309
  WF centre and spread    9  ( -0.000000, -0.000000, -0.680948 )     0.53638787
  WF centre and spread   10  ( -0.000000, -0.000000, -0.660695 )     0.52834581
  WF centre and spread   11  (  0.000000,  0.000000,  0.680948 )     0.53638788
  WF centre and spread   12  (  0.000000, -0.000000,  0.660695 )     0.52834581
  WF centre and spread   13  (  0.000000, -0.000000,  0.000000 )     0.36125317
  WF centre and spread   14  (  0.000000, -0.000000, -0.000000 )     0.34789764
  WF centre and spread   15  (  0.000000, -0.000000, -0.000000 )     0.36125319
  WF centre and spread   16  ( -0.000000,  0.000000,  0.000000 )     0.34789764
  WF centre and spread   17  (  0.000000,  0.000000,  0.000000 )     0.36125642
  WF centre and spread   18  ( -0.000000, -0.000000,  0.000000 )     0.34790101
  Sum of centres and spreads ( -0.000000, -0.000000,  0.000000 )     8.51589012

    194    -0.157E-11     0.0000008593        8.5158901204       1.78  <-- CONV
        O_D=      0.0125143 O_OD=      2.3103378 O_TOT=      8.5158901 <-- SPRD
 Delta: O_D=  0.1391199E-08 O_OD= -0.1392768E-08 O_TOT= -0.1570299E-11 <-- DLTA
 ------------------------------------------------------------------------------
 Cycle:    195
  WF centre and spread    1  ( -0.680958,  0.000000,  0.000000 )     0.53638784
  WF centre and spread    2  ( -0.660689,  0.000000,  0.000000 )     0.52835310
  WF centre and spread    3  (  0.680958, -0.000000, -0.000000 )     0.53638782
  WF centre and spread    4  (  0.660689, -0.000000,  0.000000 )     0.52835308
  WF centre and spread    5  (  0.000000, -0.680958,  0.000000 )     0.53638786
  WF centre and spread    6  (  0.000000, -0.660689,  0.000000 )     0.52835306
  WF centre and spread    7  ( -0.000000,  0.680958, -0.000000 )     0.53638782
  WF centre and spread    8  (  0.000000,  0.660689, -0.000000 )     0.52835309
  WF centre and spread    9  ( -0.000000, -0.000000, -0.680948 )     0.53638787
  WF centre and spread   10  ( -0.000000, -0.000000, -0.660695 )     0.52834582
  WF centre and spread   11  (  0.000000,  0.000000,  0.680948 )     0.53638788
  WF centre and spread   12  (  0.000000, -0.000000,  0.660695 )     0.52834581
  WF centre and spread   13  (  0.000000, -0.000000,  0.000000 )     0.36125317
  WF centre and spread   14  (  0.000000, -0.000000, -0.000000 )     0.34789764
  WF centre and spread   15  (  0.000000, -0.000000, -0.000000 )     0.36125319
  WF centre and spread   16  ( -0.000000,  0.000000,  0.000000 )     0.34789764
  WF centre and spread   17  (  0.000000,  0.000000,  0.000000 )     0.36125642
  WF centre and spread   18  ( -0.000000, -0.000000,  0.000000 )     0.34790101
  Sum of centres and spreads ( -0.000000, -0.000000,  0.000000 )     8.51589012

    195    -0.149E-12     0.0000006074        8.5158901204       1.78  <-- CONV
        O_D=      0.0125143 O_OD=      2.3103378 O_TOT=      8.5158901 <-- SPRD
 Delta: O_D=  0.3470581E-10 O_OD= -0.3485567E-10 O_TOT= -0.1492140E-12 <-- DLTA
 ------------------------------------------------------------------------------
 Cycle:    196
  WF centre and spread    1  ( -0.680958,  0.000000,  0.000000 )     0.53638784
  WF centre and spread    2  ( -0.660689,  0.000000,  0.000000 )     0.52835310
  WF centre and spread    3  (  0.680958, -0.000000, -0.000000 )     0.53638782
  WF centre and spread    4  (  0.660689, -0.000000,  0.000000 )     0.52835308
  WF centre and spread    5  (  0.000000, -0.680958,  0.000000 )     0.53638786
  WF centre and spread    6  (  0.000000, -0.660689,  0.000000 )     0.52835305
  WF centre and spread    7  ( -0.000000,  0.680958, -0.000000 )     0.53638782
  WF centre and spread    8  (  0.000000,  0.660689, -0.000000 )     0.52835310
  WF centre and spread    9  ( -0.000000, -0.000000, -0.680948 )     0.53638787
  WF centre and spread   10  ( -0.000000, -0.000000, -0.660695 )     0.52834582
  WF centre and spread   11  (  0.000000,  0.000000,  0.680948 )     0.53638788
  WF centre and spread   12  (  0.000000, -0.000000,  0.660695 )     0.52834581
  WF centre and spread   13  (  0.000000, -0.000000,  0.000000 )     0.36125317
  WF centre and spread   14  (  0.000000, -0.000000, -0.000000 )     0.34789764
  WF centre and spread   15  (  0.000000, -0.000000, -0.000000 )     0.36125319
  WF centre and spread   16  ( -0.000000,  0.000000,  0.000000 )     0.34789764
  WF centre and spread   17  (  0.000000,  0.000000,  0.000000 )     0.36125642
  WF centre and spread   18  ( -0.000000, -0.000000,  0.000000 )     0.34790101
  Sum of centres and spreads ( -0.000000, -0.000000,  0.000000 )     8.51589012

    196    -0.840E-12     0.0000005844        8.5158901204       1.94  <-- CONV
        O_D=      0.0125143 O_OD=      2.3103378 O_TOT=      8.5158901 <-- SPRD
 Delta: O_D= -0.2204047E-09 O_OD=  0.2195648E-09 O_TOT= -0.8402168E-12 <-- DLTA
 ------------------------------------------------------------------------------
 Cycle:    197
  WF centre and spread    1  ( -0.680958,  0.000000,  0.000000 )     0.53638784
  WF centre and spread    2  ( -0.660689,  0.000000,  0.000000 )     0.52835310
  WF centre and spread    3  (  0.680958, -0.000000, -0.000000 )     0.53638782
  WF centre and spread    4  (  0.660689, -0.000000,  0.000000 )     0.52835308
  WF centre and spread    5  (  0.000000, -0.680958,  0.000000 )     0.53638786
  WF centre and spread    6  (  0.000000, -0.660689,  0.000000 )     0.52835306
  WF centre and spread    7  ( -0.000000,  0.680958, -0.000000 )     0.53638782
  WF centre and spread    8  (  0.000000,  0.660689, -0.000000 )     0.52835310
  WF centre and spread    9  ( -0.000000, -0.000000, -0.680948 )     0.53638787
  WF centre and spread   10  ( -0.000000, -0.000000, -0.660695 )     0.52834582
  WF centre and spread   11  (  0.000000,  0.000000,  0.680948 )     0.53638788
  WF centre and spread   12  (  0.000000, -0.000000,  0.660695 )     0.52834581
  WF centre and spread   13  (  0.000000, -0.000000,  0.000000 )     0.36125317
  WF centre and spread   14  (  0.000000, -0.000000, -0.000000 )     0.34789764
  WF centre and spread   15  (  0.000000, -0.000000, -0.000000 )     0.36125319
  WF centre and spread   16  ( -0.000000,  0.000000,  0.000000 )     0.34789764
  WF centre and spread   17  (  0.000000,  0.000000,  0.000000 )     0.36125642
  WF centre and spread   18  ( -0.000000, -0.000000,  0.000000 )     0.34790101
  Sum of centres and spreads ( -0.000000, -0.000000,  0.000000 )     8.51589012

    197    -0.300E-12     0.0000005702        8.5158901204       1.95  <-- CONV
        O_D=      0.0125143 O_OD=      2.3103378 O_TOT=      8.5158901 <-- SPRD
 Delta: O_D= -0.1259173E-09 O_OD=  0.1256169E-09 O_TOT= -0.3002043E-12 <-- DLTA
 ------------------------------------------------------------------------------
 Cycle:    198
  WF centre and spread    1  ( -0.680958,  0.000000,  0.000000 )     0.53638784
  WF centre and spread    2  ( -0.660689,  0.000000,  0.000000 )     0.52835310
  WF centre and spread    3  (  0.680958, -0.000000, -0.000000 )     0.53638782
  WF centre and spread    4  (  0.660689, -0.000000,  0.000000 )     0.52835308
  WF centre and spread    5  (  0.000000, -0.680958,  0.000000 )     0.53638786
  WF centre and spread    6  (  0.000000, -0.660689,  0.000000 )     0.52835306
  WF centre and spread    7  ( -0.000000,  0.680958, -0.000000 )     0.53638782
  WF centre and spread    8  (  0.000000,  0.660689, -0.000000 )     0.52835310
  WF centre and spread    9  ( -0.000000, -0.000000, -0.680948 )     0.53638787
  WF centre and spread   10  ( -0.000000, -0.000000, -0.660695 )     0.52834582
  WF centre and spread   11  (  0.000000,  0.000000,  0.680948 )     0.53638788
  WF centre and spread   12  (  0.000000, -0.000000,  0.660695 )     0.52834581
  WF centre and spread   13  (  0.000000, -0.000000,  0.000000 )     0.36125317
  WF centre and spread   14  (  0.000000, -0.000000, -0.000000 )     0.34789764
  WF centre and spread   15  (  0.000000, -0.000000, -0.000000 )     0.36125319
  WF centre and spread   16  ( -0.000000,  0.000000,  0.000000 )     0.34789764
  WF centre and spread   17  (  0.000000,  0.000000,  0.000000 )     0.36125642
  WF centre and spread   18  ( -0.000000, -0.000000,  0.000000 )     0.34790101
  Sum of centres and spreads ( -0.000000, -0.000000,  0.000000 )     8.51589012

    198    -0.817E-13     0.0000003624        8.5158901204       1.96  <-- CONV
        O_D=      0.0125143 O_OD=      2.3103378 O_TOT=      8.5158901 <-- SPRD
 Delta: O_D= -0.2653800E-10 O_OD=  0.2645661E-10 O_TOT= -0.8171241E-13 <-- DLTA
 ------------------------------------------------------------------------------
 Cycle:    199
  WF centre and spread    1  ( -0.680958,  0.000000,  0.000000 )     0.53638784
  WF centre and spread    2  ( -0.660689,  0.000000,  0.000000 )     0.52835310
  WF centre and spread    3  (  0.680958, -0.000000, -0.000000 )     0.53638782
  WF centre and spread    4  (  0.660689, -0.000000,  0.000000 )     0.52835308
  WF centre and spread    5  (  0.000000, -0.680958,  0.000000 )     0.53638786
  WF centre and spread    6  (  0.000000, -0.660689,  0.000000 )     0.52835306
  WF centre and spread    7  ( -0.000000,  0.680958, -0.000000 )     0.53638782
  WF centre and spread    8  (  0.000000,  0.660689, -0.000000 )     0.52835310
  WF centre and spread    9  ( -0.000000, -0.000000, -0.680948 )     0.53638787
  WF centre and spread   10  ( -0.000000, -0.000000, -0.660695 )     0.52834582
  WF centre and spread   11  (  0.000000,  0.000000,  0.680948 )     0.53638788
  WF centre and spread   12  (  0.000000, -0.000000,  0.660695 )     0.52834581
  WF centre and spread   13  (  0.000000, -0.000000,  0.000000 )     0.36125317
  WF centre and spread   14  (  0.000000, -0.000000, -0.000000 )     0.34789764
  WF centre and spread   15  (  0.000000, -0.000000, -0.000000 )     0.36125319
  WF centre and spread   16  ( -0.000000,  0.000000,  0.000000 )     0.34789764
  WF centre and spread   17  (  0.000000,  0.000000,  0.000000 )     0.36125642
  WF centre and spread   18  ( -0.000000, -0.000000,  0.000000 )     0.34790101
  Sum of centres and spreads ( -0.000000, -0.000000,  0.000000 )     8.51589012

    199    -0.121E-12     0.0000003664        8.5158901204       1.96  <-- CONV
        O_D=      0.0125143 O_OD=      2.3103378 O_TOT=      8.5158901 <-- SPRD
 Delta: O_D= -0.3491091E-10 O_OD=  0.3478950E-10 O_TOT= -0.1207923E-12 <-- DLTA
 ------------------------------------------------------------------------------
 Cycle:    200
  WF centre and spread    1  ( -0.680958,  0.000000,  0.000000 )     0.53638784
  WF centre and spread    2  ( -0.660689,  0.000000,  0.000000 )     0.52835312
  WF centre and spread    3  (  0.680958, -0.000000, -0.000000 )     0.53638783
  WF centre and spread    4  (  0.660689, -0.000000,  0.000000 )     0.52835310
  WF centre and spread    5  (  0.000000, -0.680958,  0.000000 )     0.53638786
  WF centre and spread    6  (  0.000000, -0.660689,  0.000000 )     0.52835311
  WF centre and spread    7  ( -0.000000,  0.680958, -0.000000 )     0.53638782
  WF centre and spread    8  (  0.000000,  0.660689, -0.000000 )     0.52835308
  WF centre and spread    9  ( -0.000000, -0.000000, -0.680948 )     0.53638787
  WF centre and spread   10  ( -0.000000, -0.000000, -0.660695 )     0.52834577
  WF centre and spread   11  (  0.000000,  0.000000,  0.680948 )     0.53638788
  WF centre and spread   12  (  0.000000, -0.000000,  0.660695 )     0.52834577
  WF centre and spread   13  (  0.000000, -0.000000,  0.000000 )     0.36125318
  WF centre and spread   14  ( -0.000000, -0.000000, -0.000000 )     0.34789764
  WF centre and spread   15  (  0.000000,  0.000000,  0.000000 )     0.36125319
  WF centre and spread   16  ( -0.000000,  0.000000,  0.000000 )     0.34789764
  WF centre and spread   17  ( -0.000000,  0.000000,  0.000000 )     0.36125642
  WF centre and spread   18  ( -0.000000,  0.000000,  0.000000 )     0.34790101
  Sum of centres and spreads (  0.000000, -0.000000,  0.000000 )     8.51589012

    200    -0.258E-11     0.0000003605        8.5158901204       1.97  <-- CONV
        O_D=      0.0125143 O_OD=      2.3103378 O_TOT=      8.5158901 <-- SPRD
 Delta: O_D= -0.9780429E-09 O_OD=  0.9754673E-09 O_TOT= -0.2575717E-11 <-- DLTA
 ------------------------------------------------------------------------------

 Writing checkpoint file Fe.chk... done

 Final State
  WF centre and spread    1  ( -0.680958,  0.000000,  0.000000 )     0.53638784
  WF centre and spread    2  ( -0.660689,  0.000000,  0.000000 )     0.52835312
  WF centre and spread    3  (  0.680958, -0.000000, -0.000000 )     0.53638783
  WF centre and spread    4  (  0.660689, -0.000000,  0.000000 )     0.52835310
  WF centre and spread    5  (  0.000000, -0.680958,  0.000000 )     0.53638786
  WF centre and spread    6  (  0.000000, -0.660689,  0.000000 )     0.52835311
  WF centre and spread    7  ( -0.000000,  0.680958, -0.000000 )     0.53638782
  WF centre and spread    8  (  0.000000,  0.660689, -0.000000 )     0.52835308
  WF centre and spread    9  ( -0.000000, -0.000000, -0.680948 )     0.53638787
  WF centre and spread   10  ( -0.000000, -0.000000, -0.660695 )     0.52834577
  WF centre and spread   11  (  0.000000,  0.000000,  0.680948 )     0.53638788
  WF centre and spread   12  (  0.000000, -0.000000,  0.660695 )     0.52834577
  WF centre and spread   13  (  0.000000, -0.000000,  0.000000 )     0.36125318
  WF centre and spread   14  ( -0.000000, -0.000000, -0.000000 )     0.34789764
  WF centre and spread   15  (  0.000000,  0.000000,  0.000000 )     0.36125319
  WF centre and spread   16  ( -0.000000,  0.000000,  0.000000 )     0.34789764
  WF centre and spread   17  ( -0.000000,  0.000000,  0.000000 )     0.36125642
  WF centre and spread   18  ( -0.000000,  0.000000,  0.000000 )     0.34790101
  Sum of centres and spreads (  0.000000, -0.000000,  0.000000 )     8.51589012

         Spreads (Ang^2)       Omega I      =     6.193037967
        ================       Omega D      =     0.012514322
                               Omega OD     =     2.310337831
    Final Spread (Ang^2)       Omega Total  =     8.515890120
 ------------------------------------------------------------------------------
 Time for wannierise           14.637 (sec)

 Writing checkpoint file Fe.chk... done

 *---------------------------------------------------------------------------*
 |                               PLOTTING                                    |
 *---------------------------------------------------------------------------*

 Time for plotting              0.169 (sec)
 Total Execution Time          15.896 (sec)

 *===========================================================================*
 |                             TIMING INFORMATION                            |
 *===========================================================================*
 |    Tag                                                Ncalls      Time (s)|
 |---------------------------------------------------------------------------|
 |kmesh: get                                        :         1         0.028|
 |overlap: allocate                                 :         1         0.000|
 |overlap: read                                     :         1         0.080|
 |dis: main                                         :         1         0.928|
 |wann: main                                        :         1        14.637|
 |plot: main                                        :         1         0.169|
 *---------------------------------------------------------------------------*

 All done: wannier90 exiting
