
             +---------------------------------------------------+
             |                                                   |
             |                   WANNIER90                       |
             |                                                   |
             +---------------------------------------------------+
             |                                                   |
             |        Welcome to the Maximally-Localized         |
             |        Generalized Wannier Functions code         |
             |            http://www.wannier.org                 |
             |                                                   |
             |                                                   |
             |  Wannier90 Developer Group:                       |
             |    Giovanni Pizzi    (EPFL)                       |
             |    Valerio Vitale    (Cambridge)                  |
             |    David Vanderbilt  (Rutgers University)         |
             |    Nicola Marzari    (EPFL)                       |
             |    Ivo Souza         (Universidad del Pais Vasco) |
             |    Arash A. Mostofi  (Imperial College London)    |
             |    Jonathan R. Yates (University of Oxford)       |
             |                                                   |
             |  For the full list of Wannier90 3.x authors,      |
             |  please check the code documentation and the      |
             |  README on the GitHub page of the code            |
             |                                                   |
             |                                                   |
             |  Please cite                                      |
             |                                                   |
             |  [ref] "An updated version of Wannier90:          |
             |        A Tool for Obtaining Maximally Localised   |
             |        Wannier Functions", A. A. Mostofi,         |
             |        J. R. Yates, G. Pizzi, Y. S. Lee,          |
             |        I. Souza, D. Vanderbilt and N. Marzari,    |
             |        Comput. Phys. Commun. 185, 2309 (2014)     |
             |        http://dx.doi.org/10.1016/j.cpc.2014.05.003|
             |                                                   |
             |  in any publications arising from the use of      |
             |  this code. For the method please cite            |
             |                                                   |
             |  [ref] "Maximally Localized Generalised Wannier   |
             |         Functions for Composite Energy Bands"     |
             |         N. Marzari and D. Vanderbilt              |
             |         Phys. Rev. B 56 12847 (1997)              |
             |                                                   |
             |  [ref] "Maximally Localized Wannier Functions     |
             |         for Entangled Energy Bands"               |
             |         I. Souza, N. Marzari and D. Vanderbilt    |
             |         Phys. Rev. B 65 035109 (2001)             |
             |                                                   |
             |                                                   |
             | Copyright (c) 1996-2019                           |
             |        The Wannier90 Developer Group and          |
             |        individual contributors                    |
             |                                                   |
             |      Release: 3.0.0       27th February 2019      |
             |                                                   |
             | This program is free software; you can            |
             | redistribute it and/or modify it under the terms  |
             | of the GNU General Public License as published by |
             | the Free Software Foundation; either version 2 of |
             | the License, or (at your option) any later version|
             |                                                   |
             | This program is distributed in the hope that it   |
             | will be useful, but WITHOUT ANY WARRANTY; without |
             | even the implied warranty of MERCHANTABILITY or   |
             | FITNESS FOR A PARTICULAR PURPOSE. See the GNU     |
             | General Public License for more details.          |
             |                                                   |
             | You should have received a copy of the GNU General|
             | Public License along with this program; if not,   |
             | write to the Free Software Foundation, Inc.,      |
             | 675 Mass Ave, Cambridge, MA 02139, USA.           |
             |                                                   |
             +---------------------------------------------------+
             |    Execution started on 13Jun2020 at 23:26:06     |
             +---------------------------------------------------+
 
 ******************************************************************************
 * -> Using CODATA 2006 constant values                                       *
 *    (http://physics.nist.gov/cuu/Constants/index.html)                      *
 * -> Using Bohr value from CODATA                                            *
 ******************************************************************************
 

 Running in serial (with serial executable)

                                    ------
                                    SYSTEM
                                    ------

                              Lattice Vectors (Ang)
                    a_1     4.177002   2.088501   2.088501
                    a_2     2.088501   4.177002   2.088501
                    a_3     2.088501   2.088501   4.177002

                   Unit Cell Volume:      36.43879  (Ang^3)

                        Reciprocal-Space Vectors (Ang^-1)
                    b_1     2.256350  -0.752117  -0.752117
                    b_2    -0.752117   2.256350  -0.752117
                    b_3    -0.752117  -0.752117   2.256350
  
 *----------------------------------------------------------------------------*
 |   Site       Fractional Coordinate          Cartesian Coordinate (Ang)     |
 +----------------------------------------------------------------------------+
 | Ni   1   0.00000   0.00000   0.00000   |    0.00000   0.00000   0.00000    |
 | Ni   1   0.50000   0.50000   0.50000   |    4.17700   4.17700   4.17700    |
 | O    1   0.25000   0.25000   0.25000   |    2.08850   2.08850   2.08850    |
 | O    2   0.75000   0.75000   0.75000   |    6.26550   6.26550   6.26550    |
 *----------------------------------------------------------------------------*
                                ------------
                                K-POINT GRID
                                ------------
  
             Grid size =  5 x  5 x  5      Total points =  125
  
  
 *---------------------------------- MAIN ------------------------------------*
 |  Number of Wannier Functions               :                16             |
 |  Number of Objective Wannier Functions     :                16             |
 |  Number of input Bloch states              :                50             |
 |  Output verbosity (1=low, 5=high)          :                 1             |
 |  Timing Level (1=low, 5=high)              :                 1             |
 |  Optimisation (0=memory, 3=speed)          :                 3             |
 |  Length Unit                               :               Ang             |
 |  Post-processing setup (write *.nnkp)      :                 F             |
 |  Using Gamma-only branch of algorithms     :                 F             |
 *----------------------------------------------------------------------------*
 *------------------------------- WANNIERISE ---------------------------------*
 |  Total number of iterations                :              1000             |
 |  Number of CG steps before reset           :                 5             |
 |  Trial step length for line search         :             2.000             |
 |  Convergence tolerence                     :         0.100E-09             |
 |  Convergence window                        :                -1             |
 |  Iterations between writing output         :                 1             |
 |  Iterations between backing up to disk     :               100             |
 |  Write r^2_nm to file                      :                 F             |
 |  Write xyz WF centres to file              :                 F             |
 |  Write on-site energies <0n|H|0n> to file  :                 F             |
 |  Use guiding centre to control phases      :                 F             |
 |  Use phases for initial projections        :                 F             |
 *----------------------------------------------------------------------------*
 *------------------------------- DISENTANGLE --------------------------------*
 |  Using band disentanglement                :                 T             |
 |  Total number of iterations                :               200             |
 |  Mixing ratio                              :             0.500             |
 |  Convergence tolerence                     :         1.000E-10             |
 |  Convergence window                        :                 3             |
 *----------------------------------------------------------------------------*
 Time to read parameters        0.017 (sec)

 *---------------------------------- K-MESH ----------------------------------*
 +----------------------------------------------------------------------------+
 |                    Distance to Nearest-Neighbour Shells                    |
 |                    ------------------------------------                    |
 |          Shell             Distance (Ang^-1)          Multiplicity         |
 |          -----             -----------------          ------------         |
 |             1                   0.260541                      2            |
 |             2                   0.498898                      6            |
 |             3                   0.521082                      8            |
 |             4                   0.601693                      6            |
 |             5                   0.655680                      6            |
 |             6                   0.781623                      8            |
 |             7                   0.850923                     12            |
 |             8                   0.889916                     12            |
 |             9                   0.986392                      6            |
 |            10                   0.997796                     24            |
 |            11                   1.042163                      8            |
 |            12                   1.074237                     12            |
 |            13                   1.155424                     18            |
 |            14                   1.203387                      6            |
 |            15                   1.231268                      6            |
 |            16                   1.302704                     14            |
 |            17                   1.311360                     24            |
 |            18                   1.345427                     24            |
 |            19                   1.370422                     18            |
 |            20                   1.434947                     12            |
 |            21                   1.473842                     24            |
 |            22                   1.496693                     18            |
 |            23                   1.555991                     18            |
 |            24                   1.563245                     32            |
 |            25                   1.613111                     12            |
 |            26                   1.668276                     12            |
 |            27                   1.701846                     12            |
 |            28                   1.721674                     30            |
 |            29                   1.773465                     18            |
 |            30                   1.779833                     48            |
 |            31                   1.805080                     30            |
 |            32                   1.823786                     14            |
 |            33                   1.872755                     24            |
 |            34                   1.902721                     24            |
 |            35                   1.920477                      6            |
 |            36                   1.967040                     30            |
 +----------------------------------------------------------------------------+
 | The b-vectors are chosen automatically                                     |
 | The following shells are used:   1,  2                                     |
 +----------------------------------------------------------------------------+
 |                        Shell   # Nearest-Neighbours                        |
 |                        -----   --------------------                        |
 |                          1               2                                 |
 |                          2               6                                 |
 +----------------------------------------------------------------------------+
 | Completeness relation is fully satisfied [Eq. (B1), PRB 56, 12847 (1997)]  |
 +----------------------------------------------------------------------------+
 |                  b_k Vectors (Ang^-1) and Weights (Ang^2)                  |
 |                  ----------------------------------------                  |
 |            No.         b_k(x)      b_k(y)      b_k(z)        w_b           |
 |            ---        --------------------------------     --------        |
 |             1         0.150423    0.150423    0.150423     6.905412        |
 |             2        -0.150423   -0.150423   -0.150423     6.905412        |
 |             3         0.451270   -0.150423   -0.150423     1.381082        |
 |             4        -0.150423    0.451270   -0.150423     1.381082        |
 |             5        -0.150423   -0.150423    0.451270     1.381082        |
 |             6         0.150423    0.150423   -0.451270     1.381082        |
 |             7         0.150423   -0.451270    0.150423     1.381082        |
 |             8        -0.451270    0.150423    0.150423     1.381082        |
 +----------------------------------------------------------------------------+
 |                           b_k Directions (Ang^-1)                          |
 |                           -----------------------                          |
 |            No.           x           y           z                         |
 |            ---        --------------------------------                     |
 |             1         0.150423    0.150423    0.150423                     |
 |             2         0.451270   -0.150423   -0.150423                     |
 |             3        -0.150423    0.451270   -0.150423                     |
 |             4        -0.150423   -0.150423    0.451270                     |
 +----------------------------------------------------------------------------+
  
 Time to get kmesh              0.921 (sec)
 *============================================================================*
 |                              MEMORY ESTIMATE                               |
 |         Maximum RAM allocated during each phase of the calculation         |
 *============================================================================*
 |                        Disentanglement           51.52 Mb                  |
 |                            Wannierise:           12.03 Mb                  |
 |                          plot_wannier:           12.03 Mb                  |
 *----------------------------------------------------------------------------*
  
 Starting a new Wannier90 calculation ...


 Reading overlaps from wandn.mmn    :  Created on  9Jun2020 at 22:35: 5

 Reading projections from wandn.amn :  Created on  9Jun2020 at 22:34:58

 Time to read overlaps          3.576 (sec)

 *------------------------------- DISENTANGLE --------------------------------*
 +----------------------------------------------------------------------------+
 |                              Energy  Windows                               |
 |                              ---------------                               |
 |                   Outer:   -3.32697  to   19.28680  (eV)                   |
 |                   Inner:    1.67303  to   14.28680  (eV)                   |
 +----------------------------------------------------------------------------+
   Number of target bands to extract:   16

                   Unitarised projection of Wannier functions                  
                   ------------------------------------------                  
   A_mn = <psi_m|g_n> --> S = A.A^+ --> U = S^-1/2.A
   In dis_project... done
   Using an inner window (linner = T)
   In dis_proj_froz... done

                   Extraction of optimally-connected subspace                  
                   ------------------------------------------                  
 +---------------------------------------------------------------------+<-- DIS
 |  Iter     Omega_I(i-1)      Omega_I(i)      Delta (frac.)    Time   |<-- DIS
 +---------------------------------------------------------------------+<-- DIS
       1       9.70200814       9.85298746      -1.532E-02      0.00    <-- DIS
       2       9.70856908       9.71849088      -1.021E-03      0.02    <-- DIS
       3       9.68509710       9.67458335       1.087E-03      0.04    <-- DIS
       4       9.67026187       9.64699517       2.412E-03      0.05    <-- DIS
       5       9.65778345       9.64430315       1.398E-03      0.07    <-- DIS
       6       9.65098198       9.64421437       7.017E-04      0.09    <-- DIS
       7       9.64757009       9.64420282       3.492E-04      0.11    <-- DIS
       8       9.64586763       9.64419685       1.732E-04      0.13    <-- DIS
       9       9.64501959       9.64419357       8.565E-05      0.14    <-- DIS
      10       9.64459801       9.64419171       4.213E-05      0.16    <-- DIS
      11       9.64438900       9.64419064       2.057E-05      0.18    <-- DIS
      12       9.64428577       9.64419001       9.929E-06      0.20    <-- DIS
      13       9.64423505       9.64418964       4.709E-06      0.22    <-- DIS
      14       9.64421034       9.64418941       2.170E-06      0.23    <-- DIS
      15       9.64419844       9.64418927       9.504E-07      0.25    <-- DIS
      16       9.64419282       9.64418919       3.763E-07      0.27    <-- DIS
      17       9.64419024       9.64418913       1.149E-07      0.29    <-- DIS
      18       9.64418913       9.64418910       2.861E-09      0.30    <-- DIS
      19       9.64418870       9.64418908      -3.958E-08      0.32    <-- DIS
      20       9.64418858       9.64418907      -5.079E-08      0.34    <-- DIS
      21       9.64418859       9.64418906      -4.897E-08      0.36    <-- DIS
      22       9.64418864       9.64418905      -4.251E-08      0.38    <-- DIS
      23       9.64418871       9.64418905      -3.509E-08      0.39    <-- DIS
      24       9.64418878       9.64418905      -2.822E-08      0.41    <-- DIS
      25       9.64418883       9.64418905      -2.237E-08      0.43    <-- DIS
      26       9.64418887       9.64418904      -1.760E-08      0.45    <-- DIS
      27       9.64418891       9.64418904      -1.379E-08      0.46    <-- DIS
      28       9.64418894       9.64418904      -1.079E-08      0.48    <-- DIS
      29       9.64418896       9.64418904      -8.440E-09      0.50    <-- DIS
      30       9.64418898       9.64418904      -6.603E-09      0.52    <-- DIS
      31       9.64418899       9.64418904      -5.168E-09      0.53    <-- DIS
      32       9.64418900       9.64418904      -4.047E-09      0.55    <-- DIS
      33       9.64418901       9.64418904      -3.170E-09      0.57    <-- DIS
      34       9.64418902       9.64418904      -2.483E-09      0.59    <-- DIS
      35       9.64418902       9.64418904      -1.944E-09      0.61    <-- DIS
      36       9.64418902       9.64418904      -1.522E-09      0.62    <-- DIS
      37       9.64418903       9.64418904      -1.189E-09      0.64    <-- DIS
      38       9.64418903       9.64418904      -9.272E-10      0.66    <-- DIS
      39       9.64418903       9.64418904      -7.209E-10      0.68    <-- DIS
      40       9.64418903       9.64418904      -5.582E-10      0.69    <-- DIS
      41       9.64418903       9.64418904      -4.297E-10      0.71    <-- DIS
      42       9.64418903       9.64418904      -3.282E-10      0.73    <-- DIS
      43       9.64418903       9.64418903      -2.480E-10      0.75    <-- DIS
      44       9.64418903       9.64418903      -1.846E-10      0.76    <-- DIS
      45       9.64418903       9.64418903      -1.344E-10      0.78    <-- DIS
      46       9.64418903       9.64418903      -9.471E-11      0.80    <-- DIS
      47       9.64418903       9.64418903      -6.326E-11      0.82    <-- DIS
      48       9.64418903       9.64418903      -3.837E-11      0.84    <-- DIS

             <<<      Delta < 1.000E-10  over  3 iterations     >>>
             <<< Disentanglement convergence criteria satisfied >>>

        Final Omega_I     9.64418903 (Ang^2)

 +----------------------------------------------------------------------------+

 Time to disentangle bands      0.978 (sec)

 Writing checkpoint file wandn.chk... done


 *------------------------------- WANNIERISE ---------------------------------*
 +--------------------------------------------------------------------+<-- CONV
 | Iter  Delta Spread     RMS Gradient      Spread (Ang^2)      Time  |<-- CONV
 +--------------------------------------------------------------------+<-- CONV

 ------------------------------------------------------------------------------
 Initial State
  WF centre and spread    1  (  0.000233,  0.000234,  0.000064 )     0.41716212
  WF centre and spread    2  (  0.000000,  0.000000,  0.000000 )     0.35163150
  WF centre and spread    3  (  0.000002,  0.000003,  0.000003 )     0.35175454
  WF centre and spread    4  (  0.000060, -0.000012,  0.000023 )     0.40588142
  WF centre and spread    5  (  0.000003,  0.000004,  0.000005 )     0.35199193
  WF centre and spread    6  (  4.180764,  4.180739,  4.193721 )     1.06262466
  WF centre and spread    7  (  4.177002,  4.177002,  4.177002 )     0.37299662
  WF centre and spread    8  (  4.177006,  4.177006,  4.177006 )     0.37336836
  WF centre and spread    9  (  4.177097,  4.178863,  4.177943 )     0.62310824
  WF centre and spread   10  (  4.177014,  4.177008,  4.177007 )     0.37336723
  WF centre and spread   11  (  2.088864,  2.088840,  2.100867 )     1.05383870
  WF centre and spread   12  (  2.078071,  2.090269,  2.090288 )     1.02667015
  WF centre and spread   13  (  2.089123,  2.085389,  2.089133 )     0.94999520
  WF centre and spread   14  (  6.269478,  6.269518,  6.259539 )     1.08133864
  WF centre and spread   15  (  6.277184,  6.266961,  6.266962 )     1.02251421
  WF centre and spread   16  (  6.265064,  6.268404,  6.265059 )     0.94726748
  Sum of centres and spreads ( 45.956967, 45.960226, 45.974622 )    10.76551098

      0     0.108E+02     0.0000000000       10.7655109802       0.93  <-- CONV
        O_D=      0.0333038 O_OD=      1.0880182 O_TOT=     10.7655110 <-- SPRD
 ------------------------------------------------------------------------------
 Cycle:      1
  WF centre and spread    1  ( -0.000023, -0.000020, -0.000023 )     0.40931145
  WF centre and spread    2  ( -0.000002,  0.000001, -0.000002 )     0.34946561
  WF centre and spread    3  (  0.000001, -0.000001,  0.000001 )     0.34960608
  WF centre and spread    4  ( -0.000006,  0.000001, -0.000009 )     0.40104469
  WF centre and spread    5  ( -0.000001, -0.000002, -0.000000 )     0.34954495
  WF centre and spread    6  (  4.179372,  4.179503,  4.147113 )     1.35200993
  WF centre and spread    7  (  4.176999,  4.177002,  4.177000 )     0.37122623
  WF centre and spread    8  (  4.177001,  4.176998,  4.177000 )     0.37140233
  WF centre and spread    9  (  4.176903,  4.176604,  4.176457 )     0.60753639
  WF centre and spread   10  (  4.177009,  4.177000,  4.177001 )     0.37150270
  WF centre and spread   11  (  2.087881,  2.087933,  2.094713 )     1.00278076
  WF centre and spread   12  (  2.080321,  2.088788,  2.088614 )     0.97217622
  WF centre and spread   13  (  2.088841,  2.085830,  2.088867 )     0.93680483
  WF centre and spread   14  (  6.265538,  6.265494,  6.259560 )     1.00748045
  WF centre and spread   15  (  6.274442,  6.264642,  6.264398 )     0.98070450
  WF centre and spread   16  (  6.265017,  6.269730,  6.264924 )     0.93799182
  Sum of centres and spreads ( 45.949295, 45.949503, 45.915614 )    10.77058896

      1     0.508E-02     0.3288039179       10.7705889610       0.99  <-- CONV
        O_D=      0.2586310 O_OD=      0.8677689 O_TOT=     10.7705890 <-- SPRD
 Delta: O_D=  0.2253272E+00 O_OD= -0.2202493E+00 O_TOT=  0.5077981E-02 <-- DLTA
 ------------------------------------------------------------------------------
 Cycle:      2
  WF centre and spread    1  ( -0.000023, -0.000020, -0.000023 )     0.40930842
  WF centre and spread    2  ( -0.000002,  0.000001, -0.000002 )     0.34944198
  WF centre and spread    3  (  0.000001, -0.000001,  0.000001 )     0.34957995
  WF centre and spread    4  ( -0.000006,  0.000000, -0.000009 )     0.40102289
  WF centre and spread    5  ( -0.000001, -0.000002, -0.000000 )     0.34952590
  WF centre and spread    6  (  4.183137,  4.183258,  4.137935 )     1.31059470
  WF centre and spread    7  (  4.176999,  4.177002,  4.177000 )     0.37120100
  WF centre and spread    8  (  4.177001,  4.176998,  4.177000 )     0.37137708
  WF centre and spread    9  (  4.176911,  4.176632,  4.176432 )     0.60832026
  WF centre and spread   10  (  4.177009,  4.177000,  4.177001 )     0.37148221
  WF centre and spread   11  (  2.087872,  2.087923,  2.094809 )     1.00281166
  WF centre and spread   12  (  2.080238,  2.088798,  2.088613 )     0.97199185
  WF centre and spread   13  (  2.088842,  2.085819,  2.088871 )     0.93649894
  WF centre and spread   14  (  6.265563,  6.265519,  6.259312 )     1.00700069
  WF centre and spread   15  (  6.274559,  6.264644,  6.264370 )     0.98040413
  WF centre and spread   16  (  6.265016,  6.269772,  6.264919 )     0.93779145
  Sum of centres and spreads ( 45.953119, 45.953344, 45.906228 )    10.72835311

      2    -0.422E-01     1.2899279751       10.7283531096       1.04  <-- CONV
        O_D=      0.2191647 O_OD=      0.8649993 O_TOT=     10.7283531 <-- SPRD
 Delta: O_D= -0.3946629E-01 O_OD= -0.2769565E-02 O_TOT= -0.4223585E-01 <-- DLTA
 ------------------------------------------------------------------------------
 Cycle:      3
  WF centre and spread    1  ( -0.000007, -0.000005, -0.000003 )     0.40961967
  WF centre and spread    2  ( -0.000002,  0.000001, -0.000002 )     0.34919242
  WF centre and spread    3  (  0.000001, -0.000002,  0.000000 )     0.34932172
  WF centre and spread    4  (  0.000001, -0.000002, -0.000009 )     0.40085351
  WF centre and spread    5  ( -0.000001, -0.000003, -0.000000 )     0.34930555
  WF centre and spread    6  (  4.185270,  4.185329,  4.151862 )     1.13357722
  WF centre and spread    7  (  4.177000,  4.177002,  4.177000 )     0.37094874
  WF centre and spread    8  (  4.177002,  4.177000,  4.177000 )     0.37111365
  WF centre and spread    9  (  4.177023,  4.176929,  4.176425 )     0.61772456
  WF centre and spread   10  (  4.177008,  4.177000,  4.177000 )     0.37128398
  WF centre and spread   11  (  2.087654,  2.087692,  2.095546 )     1.00967968
  WF centre and spread   12  (  2.079510,  2.088830,  2.088616 )     0.97048476
  WF centre and spread   13  (  2.088846,  2.085653,  2.088896 )     0.93365974
  WF centre and spread   14  (  6.265996,  6.265956,  6.257999 )     1.00738714
  WF centre and spread   15  (  6.275542,  6.264846,  6.264434 )     0.97849750
  WF centre and spread   16  (  6.265040,  6.270054,  6.264908 )     0.93577892
  Sum of centres and spreads ( 45.955883, 45.956280, 45.919672 )    10.55842876

      3    -0.170E+00     0.7765335056       10.5584287595       1.10  <-- CONV
        O_D=      0.0470239 O_OD=      0.8672158 O_TOT=     10.5584288 <-- SPRD
 Delta: O_D= -0.1721408E+00 O_OD=  0.2216434E-02 O_TOT= -0.1699244E+00 <-- DLTA
 ------------------------------------------------------------------------------
 Cycle:      4
  WF centre and spread    1  (  0.000003,  0.000004, -0.000001 )     0.40950898
  WF centre and spread    2  ( -0.000002,  0.000000, -0.000002 )     0.34905257
  WF centre and spread    3  (  0.000000, -0.000002, -0.000000 )     0.34917000
  WF centre and spread    4  (  0.000005, -0.000004, -0.000006 )     0.40066167
  WF centre and spread    5  ( -0.000001, -0.000003, -0.000000 )     0.34919190
  WF centre and spread    6  (  4.182229,  4.182282,  4.165892 )     1.10078892
  WF centre and spread    7  (  4.177000,  4.177002,  4.177000 )     0.37082956
  WF centre and spread    8  (  4.177002,  4.177000,  4.177000 )     0.37100494
  WF centre and spread    9  (  4.177026,  4.177107,  4.176646 )     0.62105947
  WF centre and spread   10  (  4.177008,  4.177000,  4.177001 )     0.37116259
  WF centre and spread   11  (  2.087481,  2.087514,  2.096166 )     1.01203860
  WF centre and spread   12  (  2.079159,  2.088858,  2.088760 )     0.96986448
  WF centre and spread   13  (  2.088861,  2.085431,  2.088925 )     0.93207963
  WF centre and spread   14  (  6.266291,  6.266254,  6.258205 )     1.00318220
  WF centre and spread   15  (  6.275778,  6.264992,  6.264622 )     0.97550909
  WF centre and spread   16  (  6.265066,  6.270036,  6.264923 )     0.93414224
  Sum of centres and spreads ( 45.952906, 45.953473, 45.935130 )    10.51924683

      4    -0.392E-01     0.4408098453       10.5192468305       1.15  <-- CONV
        O_D=      0.0200829 O_OD=      0.8549749 O_TOT=     10.5192468 <-- SPRD
 Delta: O_D= -0.2694102E-01 O_OD= -0.1224091E-01 O_TOT= -0.3918193E-01 <-- DLTA
 ------------------------------------------------------------------------------
 Cycle:      5
  WF centre and spread    1  (  0.000002,  0.000002, -0.000006 )     0.40914539
  WF centre and spread    2  ( -0.000002,  0.000000, -0.000002 )     0.34890023
  WF centre and spread    3  ( -0.000000, -0.000002,  0.000000 )     0.34900964
  WF centre and spread    4  (  0.000007, -0.000005, -0.000002 )     0.40034134
  WF centre and spread    5  ( -0.000001, -0.000003, -0.000000 )     0.34906248
  WF centre and spread    6  (  4.176381,  4.176405,  4.178472 )     1.09192228
  WF centre and spread    7  (  4.177000,  4.177002,  4.177000 )     0.37072884
  WF centre and spread    8  (  4.177002,  4.177000,  4.177001 )     0.37091979
  WF centre and spread    9  (  4.176939,  4.177114,  4.176905 )     0.62116030
  WF centre and spread   10  (  4.177009,  4.177000,  4.177002 )     0.37103662
  WF centre and spread   11  (  2.087268,  2.087295,  2.096166 )     1.00837781
  WF centre and spread   12  (  2.078970,  2.088839,  2.088926 )     0.96684278
  WF centre and spread   13  (  2.088880,  2.085093,  2.088964 )     0.93007532
  WF centre and spread   14  (  6.266481,  6.266446,  6.259236 )     0.99553812
  WF centre and spread   15  (  6.275578,  6.265143,  6.264913 )     0.96923697
  WF centre and spread   16  (  6.265094,  6.269834,  6.264950 )     0.93148906
  Sum of centres and spreads ( 45.946606, 45.947164, 45.949525 )    10.48378698

      5    -0.355E-01     0.3172731985       10.4837869789       1.21  <-- CONV
        O_D=      0.0129241 O_OD=      0.8266739 O_TOT=     10.4837870 <-- SPRD
 Delta: O_D= -0.7158839E-02 O_OD= -0.2830101E-01 O_TOT= -0.3545985E-01 <-- DLTA
 ------------------------------------------------------------------------------
 Cycle:      6
  WF centre and spread    1  ( -0.000019, -0.000019, -0.000012 )     0.40876253
  WF centre and spread    2  ( -0.000002,  0.000000, -0.000001 )     0.34881879
  WF centre and spread    3  (  0.000000, -0.000002,  0.000000 )     0.34893091
  WF centre and spread    4  (  0.000002, -0.000004, -0.000002 )     0.40010633
  WF centre and spread    5  ( -0.000001, -0.000002, -0.000000 )     0.34898185
  WF centre and spread    6  (  4.171385,  4.171343,  4.182914 )     1.10485376
  WF centre and spread    7  (  4.177000,  4.177002,  4.177001 )     0.37069441
  WF centre and spread    8  (  4.177001,  4.177000,  4.177001 )     0.37089082
  WF centre and spread    9  (  4.176824,  4.176825,  4.176864 )     0.61895377
  WF centre and spread   10  (  4.177009,  4.177000,  4.177002 )     0.37098811
  WF centre and spread   11  (  2.087131,  2.087158,  2.095156 )     1.00110494
  WF centre and spread   12  (  2.079077,  2.088755,  2.088926 )     0.96213600
  WF centre and spread   13  (  2.088885,  2.084861,  2.088981 )     0.92851868
  WF centre and spread   14  (  6.266437,  6.266399,  6.260167 )     0.98955755
  WF centre and spread   15  (  6.275086,  6.265160,  6.265019 )     0.96343497
  WF centre and spread   16  (  6.265103,  6.269624,  6.264967 )     0.92930051
  Sum of centres and spreads ( 45.940918, 45.941099, 45.953984 )    10.46603393

      6    -0.178E-01     0.2776892555       10.4660339276       1.26  <-- CONV
        O_D=      0.0167729 O_OD=      0.8050720 O_TOT=     10.4660339 <-- SPRD
 Delta: O_D=  0.3848764E-02 O_OD= -0.2160182E-01 O_TOT= -0.1775305E-01 <-- DLTA
 ------------------------------------------------------------------------------
 Cycle:      7
  WF centre and spread    1  ( -0.000065, -0.000065, -0.000014 )     0.40849337
  WF centre and spread    2  ( -0.000001,  0.000000, -0.000000 )     0.34878462
  WF centre and spread    3  (  0.000000, -0.000001,  0.000000 )     0.34890684
  WF centre and spread    4  ( -0.000011,  0.000001, -0.000007 )     0.40000662
  WF centre and spread    5  ( -0.000002, -0.000002, -0.000000 )     0.34894161
  WF centre and spread    6  (  4.181676,  4.181462,  4.131555 )     1.40758661
  WF centre and spread    7  (  4.177000,  4.177002,  4.177001 )     0.37072414
  WF centre and spread    8  (  4.177001,  4.177000,  4.177001 )     0.37092524
  WF centre and spread    9  (  4.176714,  4.176184,  4.176536 )     0.61719963
  WF centre and spread   10  (  4.177008,  4.177000,  4.177002 )     0.37101700
  WF centre and spread   11  (  2.087001,  2.087027,  2.092945 )     0.99069627
  WF centre and spread   12  (  2.079434,  2.088583,  2.088783 )     0.95499618
  WF centre and spread   13  (  2.088880,  2.084609,  2.088991 )     0.92637721
  WF centre and spread   14  (  6.266325,  6.266278,  6.261189 )     0.98333125
  WF centre and spread   15  (  6.274300,  6.265116,  6.265010 )     0.95665973
  WF centre and spread   16  (  6.265107,  6.269356,  6.264985 )     0.92661701
  Sum of centres and spreads ( 45.950368, 45.949550, 45.900976 )    10.73126332

      7     0.265E+00     0.3729334189       10.7312633203       1.32  <-- CONV
        O_D=      0.3000099 O_OD=      0.7870644 O_TOT=     10.7312633 <-- SPRD
 Delta: O_D=  0.2832370E+00 O_OD= -0.1800764E-01 O_TOT=  0.2652294E+00 <-- DLTA
 ------------------------------------------------------------------------------
 Cycle:      8
  WF centre and spread    1  ( -0.000097, -0.000098,  0.000002 )     0.40917056
  WF centre and spread    2  ( -0.000001,  0.000000, -0.000000 )     0.34876004
  WF centre and spread    3  (  0.000000, -0.000001,  0.000000 )     0.34887843
  WF centre and spread    4  ( -0.000020,  0.000005, -0.000012 )     0.40010084
  WF centre and spread    5  ( -0.000002, -0.000002, -0.000001 )     0.34894701
  WF centre and spread    6  (  4.173648,  4.173479,  4.152319 )     1.18985171
  WF centre and spread    7  (  4.177000,  4.177002,  4.177001 )     0.37071108
  WF centre and spread    8  (  4.177001,  4.177000,  4.177001 )     0.37094003
  WF centre and spread    9  (  4.176859,  4.175852,  4.176171 )     0.62561280
  WF centre and spread   10  (  4.177008,  4.177000,  4.177001 )     0.37100409
  WF centre and spread   11  (  2.086933,  2.086949,  2.092912 )     0.99965374
  WF centre and spread   12  (  2.079185,  2.088487,  2.088591 )     0.95810962
  WF centre and spread   13  (  2.088869,  2.084642,  2.088981 )     0.92604405
  WF centre and spread   14  (  6.266559,  6.266512,  6.259658 )     0.99069837
  WF centre and spread   15  (  6.274960,  6.265102,  6.264820 )     0.95976618
  WF centre and spread   16  (  6.265108,  6.269592,  6.264967 )     0.92654771
  Sum of centres and spreads ( 45.943011, 45.941522, 45.919414 )    10.54479625

      8    -0.186E+00     1.5349655036       10.5447962546       1.38  <-- CONV
        O_D=      0.0890477 O_OD=      0.8115595 O_TOT=     10.5447963 <-- SPRD
 Delta: O_D= -0.2109622E+00 O_OD=  0.2449512E-01 O_TOT= -0.1864671E+00 <-- DLTA
 ------------------------------------------------------------------------------
 Cycle:      9
  WF centre and spread    1  ( -0.000046, -0.000047,  0.000027 )     0.40936057
  WF centre and spread    2  ( -0.000001,  0.000000, -0.000000 )     0.34872645
  WF centre and spread    3  (  0.000000, -0.000001,  0.000000 )     0.34884445
  WF centre and spread    4  ( -0.000006,  0.000003, -0.000007 )     0.40016102
  WF centre and spread    5  ( -0.000001, -0.000002, -0.000000 )     0.34892294
  WF centre and spread    6  (  4.180085,  4.180092,  4.159820 )     1.11357599
  WF centre and spread    7  (  4.177000,  4.177002,  4.177001 )     0.37068112
  WF centre and spread    8  (  4.177002,  4.177001,  4.177001 )     0.37091221
  WF centre and spread    9  (  4.177083,  4.176482,  4.176518 )     0.62800040
  WF centre and spread   10  (  4.177008,  4.177000,  4.177001 )     0.37098737
  WF centre and spread   11  (  2.087207,  2.087224,  2.093680 )     1.00022657
  WF centre and spread   12  (  2.079033,  2.088601,  2.088693 )     0.95872665
  WF centre and spread   13  (  2.088865,  2.084595,  2.088982 )     0.92559359
  WF centre and spread   14  (  6.266865,  6.266824,  6.259397 )     0.99223493
  WF centre and spread   15  (  6.275371,  6.265265,  6.264924 )     0.95915540
  WF centre and spread   16  (  6.265120,  6.269710,  6.264973 )     0.92578720
  Sum of centres and spreads ( 45.950587, 45.949749, 45.928009 )    10.47189688

      9    -0.729E-01     0.5847731304       10.4718968750       1.43  <-- CONV
        O_D=      0.0194513 O_OD=      0.8082566 O_TOT=     10.4718969 <-- SPRD
 Delta: O_D= -0.6959643E-01 O_OD= -0.3302952E-02 O_TOT= -0.7289938E-01 <-- DLTA
 ------------------------------------------------------------------------------
 Cycle:     10
  WF centre and spread    1  ( -0.000001, -0.000003,  0.000020 )     0.40911723
  WF centre and spread    2  ( -0.000000, -0.000000, -0.000001 )     0.34872333
  WF centre and spread    3  ( -0.000000, -0.000000, -0.000000 )     0.34884808
  WF centre and spread    4  (  0.000006,  0.000000,  0.000002 )     0.40028604
  WF centre and spread    5  ( -0.000001, -0.000001,  0.000001 )     0.34890277
  WF centre and spread    6  (  4.174919,  4.175029,  4.192617 )     1.16017126
  WF centre and spread    7  (  4.177000,  4.177002,  4.177001 )     0.37068476
  WF centre and spread    8  (  4.177002,  4.177002,  4.177002 )     0.37089031
  WF centre and spread    9  (  4.177014,  4.177137,  4.177180 )     0.62225825
  WF centre and spread   10  (  4.177009,  4.177000,  4.177002 )     0.37101141
  WF centre and spread   11  (  2.087493,  2.087520,  2.094330 )     0.98863108
  WF centre and spread   12  (  2.079105,  2.088763,  2.088997 )     0.95497499
  WF centre and spread   13  (  2.088873,  2.084377,  2.088998 )     0.92466386
  WF centre and spread   14  (  6.266597,  6.266561,  6.260972 )     0.98388661
  WF centre and spread   15  (  6.274818,  6.265292,  6.265146 )     0.95332875
  WF centre and spread   16  (  6.265128,  6.269517,  6.265009 )     0.92421272
  Sum of centres and spreads ( 45.944962, 45.945195, 45.964275 )    10.48059145

     10     0.869E-02     0.2696316922       10.4805914504       1.49  <-- CONV
        O_D=      0.0626169 O_OD=      0.7737855 O_TOT=     10.4805915 <-- SPRD
 Delta: O_D=  0.4316559E-01 O_OD= -0.3447102E-01 O_TOT=  0.8694575E-02 <-- DLTA
 ------------------------------------------------------------------------------
 Cycle:     11
  WF centre and spread    1  ( -0.000065, -0.000066,  0.000013 )     0.40940990
  WF centre and spread    2  ( -0.000000,  0.000000, -0.000001 )     0.34872537
  WF centre and spread    3  ( -0.000000, -0.000000, -0.000000 )     0.34885363
  WF centre and spread    4  ( -0.000014,  0.000006, -0.000008 )     0.40038022
  WF centre and spread    5  ( -0.000002, -0.000002, -0.000001 )     0.34890794
  WF centre and spread    6  (  4.175120,  4.175074,  4.161913 )     1.12193063
  WF centre and spread    7  (  4.177000,  4.177002,  4.177001 )     0.37069111
  WF centre and spread    8  (  4.177001,  4.177000,  4.177000 )     0.37090147
  WF centre and spread    9  (  4.176932,  4.176274,  4.176521 )     0.62496159
  WF centre and spread   10  (  4.177008,  4.177000,  4.177001 )     0.37102587
  WF centre and spread   11  (  2.087203,  2.087224,  2.093322 )     0.99045189
  WF centre and spread   12  (  2.079052,  2.088569,  2.088724 )     0.95383948
  WF centre and spread   13  (  2.088861,  2.084427,  2.088986 )     0.92401333
  WF centre and spread   14  (  6.266398,  6.266358,  6.259894 )     0.98526872
  WF centre and spread   15  (  6.274906,  6.265123,  6.264891 )     0.95476571
  WF centre and spread   16  (  6.265123,  6.269625,  6.265002 )     0.92415678
  Sum of centres and spreads ( 45.944525, 45.943615, 45.930261 )    10.44828362

     11    -0.323E-01     0.6220505949       10.4482836163       1.54  <-- CONV
        O_D=      0.0243213 O_OD=      0.7797733 O_TOT=     10.4482836 <-- SPRD
 Delta: O_D= -0.3829556E-01 O_OD=  0.5987724E-02 O_TOT= -0.3230783E-01 <-- DLTA
 ------------------------------------------------------------------------------
 Cycle:     12
  WF centre and spread    1  ( -0.000034, -0.000035,  0.000017 )     0.40926510
  WF centre and spread    2  ( -0.000000,  0.000000, -0.000000 )     0.34873307
  WF centre and spread    3  ( -0.000000, -0.000000, -0.000000 )     0.34885836
  WF centre and spread    4  ( -0.000006,  0.000004, -0.000005 )     0.40044423
  WF centre and spread    5  ( -0.000001, -0.000002, -0.000000 )     0.34891997
  WF centre and spread    6  (  4.181558,  4.181536,  4.154435 )     1.12465797
  WF centre and spread    7  (  4.177000,  4.177002,  4.177001 )     0.37071040
  WF centre and spread    8  (  4.177001,  4.177001,  4.177001 )     0.37092138
  WF centre and spread    9  (  4.177009,  4.176641,  4.176697 )     0.62317714
  WF centre and spread   10  (  4.177008,  4.177000,  4.177001 )     0.37103891
  WF centre and spread   11  (  2.087389,  2.087413,  2.093181 )     0.98655709
  WF centre and spread   12  (  2.079177,  2.088651,  2.088784 )     0.95246570
  WF centre and spread   13  (  2.088862,  2.084413,  2.088987 )     0.92350106
  WF centre and spread   14  (  6.266497,  6.266459,  6.260197 )     0.98270827
  WF centre and spread   15  (  6.274852,  6.265199,  6.264955 )     0.95244694
  WF centre and spread   16  (  6.265125,  6.269620,  6.265005 )     0.92342152
  Sum of centres and spreads ( 45.951437, 45.950902, 45.923256 )    10.43782709

     12    -0.105E-01     0.3496664683       10.4378270929       1.60  <-- CONV
        O_D=      0.0263406 O_OD=      0.7672974 O_TOT=     10.4378271 <-- SPRD
 Delta: O_D=  0.2019326E-02 O_OD= -0.1247585E-01 O_TOT= -0.1045652E-01 <-- DLTA
 ------------------------------------------------------------------------------
 Cycle:     13
  WF centre and spread    1  ( -0.000033, -0.000034,  0.000017 )     0.40928648
  WF centre and spread    2  ( -0.000000,  0.000000, -0.000001 )     0.34873383
  WF centre and spread    3  ( -0.000000, -0.000000, -0.000000 )     0.34885918
  WF centre and spread    4  ( -0.000005,  0.000004, -0.000004 )     0.40045198
  WF centre and spread    5  ( -0.000001, -0.000002, -0.000000 )     0.34892118
  WF centre and spread    6  (  4.179038,  4.179023,  4.162844 )     1.10836895
  WF centre and spread    7  (  4.177000,  4.177002,  4.177001 )     0.37071177
  WF centre and spread    8  (  4.177001,  4.177001,  4.177001 )     0.37092307
  WF centre and spread    9  (  4.177001,  4.176659,  4.176748 )     0.62315788
  WF centre and spread   10  (  4.177008,  4.177000,  4.177001 )     0.37104016
  WF centre and spread   11  (  2.087360,  2.087384,  2.093357 )     0.98648053
  WF centre and spread   12  (  2.079120,  2.088657,  2.088814 )     0.95246050
  WF centre and spread   13  (  2.088864,  2.084383,  2.088991 )     0.92347010
  WF centre and spread   14  (  6.266522,  6.266484,  6.260274 )     0.98243938
  WF centre and spread   15  (  6.274862,  6.265201,  6.264969 )     0.95234266
  WF centre and spread   16  (  6.265126,  6.269609,  6.265005 )     0.92337582
  Sum of centres and spreads ( 45.948863, 45.948371, 45.932017 )    10.42102350

     13    -0.168E-01     0.7070748143       10.4210234955       1.65  <-- CONV
        O_D=      0.0111087 O_OD=      0.7657258 O_TOT=     10.4210235 <-- SPRD
 Delta: O_D= -0.1523199E-01 O_OD= -0.1571610E-02 O_TOT= -0.1680360E-01 <-- DLTA
 ------------------------------------------------------------------------------
 Cycle:     14
  WF centre and spread    1  ( -0.000026, -0.000027,  0.000015 )     0.40923378
  WF centre and spread    2  ( -0.000000,  0.000000, -0.000001 )     0.34873654
  WF centre and spread    3  ( -0.000000, -0.000000, -0.000000 )     0.34886106
  WF centre and spread    4  ( -0.000004,  0.000003, -0.000003 )     0.40046271
  WF centre and spread    5  ( -0.000001, -0.000001, -0.000000 )     0.34892375
  WF centre and spread    6  (  4.176860,  4.176860,  4.172123 )     1.10336763
  WF centre and spread    7  (  4.177000,  4.177002,  4.177001 )     0.37071656
  WF centre and spread    8  (  4.177002,  4.177001,  4.177001 )     0.37092653
  WF centre and spread    9  (  4.176994,  4.176745,  4.176876 )     0.62222073
  WF centre and spread   10  (  4.177008,  4.177000,  4.177002 )     0.37104303
  WF centre and spread   11  (  2.087370,  2.087395,  2.093556 )     0.98529829
  WF centre and spread   12  (  2.079105,  2.088681,  2.088876 )     0.95202230
  WF centre and spread   13  (  2.088869,  2.084342,  2.088997 )     0.92336067
  WF centre and spread   14  (  6.266531,  6.266494,  6.260595 )     0.98096137
  WF centre and spread   15  (  6.274790,  6.265215,  6.265015 )     0.95158500
  WF centre and spread   16  (  6.265129,  6.269568,  6.265007 )     0.92320755
  Sum of centres and spreads ( 45.946627, 45.946277, 45.942061 )    10.41092750

     14    -0.101E-01     0.2826757844       10.4109275016       1.71  <-- CONV
        O_D=      0.0061185 O_OD=      0.7606199 O_TOT=     10.4109275 <-- SPRD
 Delta: O_D= -0.4990116E-02 O_OD= -0.5105878E-02 O_TOT= -0.1009599E-01 <-- DLTA
 ------------------------------------------------------------------------------
 Cycle:     15
  WF centre and spread    1  ( -0.000004, -0.000006,  0.000010 )     0.40895989
  WF centre and spread    2  ( -0.000000,  0.000000, -0.000001 )     0.34874883
  WF centre and spread    3  ( -0.000000, -0.000000, -0.000000 )     0.34886975
  WF centre and spread    4  (  0.000002,  0.000001,  0.000001 )     0.40049998
  WF centre and spread    5  ( -0.000001, -0.000001,  0.000000 )     0.34893392
  WF centre and spread    6  (  4.168273,  4.168301,  4.205664 )     1.17535014
  WF centre and spread    7  (  4.177000,  4.177002,  4.177001 )     0.37073616
  WF centre and spread    8  (  4.177002,  4.177001,  4.177002 )     0.37093937
  WF centre and spread    9  (  4.176977,  4.177010,  4.177144 )     0.61820999
  WF centre and spread   10  (  4.177009,  4.177000,  4.177002 )     0.37105483
  WF centre and spread   11  (  2.087495,  2.087526,  2.093572 )     0.98000711
  WF centre and spread   12  (  2.079272,  2.088757,  2.089001 )     0.95002880
  WF centre and spread   13  (  2.088877,  2.084292,  2.089005 )     0.92294664
  WF centre and spread   14  (  6.266473,  6.266437,  6.261519 )     0.97572137
  WF centre and spread   15  (  6.274464,  6.265249,  6.265118 )     0.94869314
  WF centre and spread   16  (  6.265132,  6.269455,  6.265016 )     0.92261677
  Sum of centres and spreads ( 45.937970, 45.938023, 45.977056 )    10.46231668

     15     0.514E-01     0.2111969156       10.4623166814       1.76  <-- CONV
        O_D=      0.0739858 O_OD=      0.7441419 O_TOT=     10.4623167 <-- SPRD
 Delta: O_D=  0.6786723E-01 O_OD= -0.1647805E-01 O_TOT=  0.5138918E-01 <-- DLTA
 ------------------------------------------------------------------------------
 Cycle:     16
  WF centre and spread    1  ( -0.000011, -0.000013,  0.000011 )     0.40914029
  WF centre and spread    2  ( -0.000000,  0.000000, -0.000001 )     0.34875014
  WF centre and spread    3  ( -0.000000, -0.000000, -0.000000 )     0.34887353
  WF centre and spread    4  ( -0.000000,  0.000002, -0.000000 )     0.40053701
  WF centre and spread    5  ( -0.000001, -0.000001,  0.000000 )     0.34893758
  WF centre and spread    6  (  4.173348,  4.173361,  4.187295 )     1.11329649
  WF centre and spread    7  (  4.177000,  4.177002,  4.177001 )     0.37073765
  WF centre and spread    8  (  4.177002,  4.177001,  4.177002 )     0.37094519
  WF centre and spread    9  (  4.176980,  4.176917,  4.177055 )     0.62023561
  WF centre and spread   10  (  4.177008,  4.177000,  4.177002 )     0.37106079
  WF centre and spread   11  (  2.087426,  2.087455,  2.093610 )     0.98217257
  WF centre and spread   12  (  2.079172,  2.088728,  2.088964 )     0.95064106
  WF centre and spread   13  (  2.088874,  2.084289,  2.089004 )     0.92293187
  WF centre and spread   14  (  6.266518,  6.266482,  6.261164 )     0.97795296
  WF centre and spread   15  (  6.274607,  6.265241,  6.265083 )     0.94959775
  WF centre and spread   16  (  6.265132,  6.269503,  6.265013 )     0.92265805
  Sum of centres and spreads ( 45.943054, 45.942967, 45.958201 )    10.40846855

     16    -0.538E-01     1.5254578504       10.4084685486       1.82  <-- CONV
        O_D=      0.0134739 O_OD=      0.7508057 O_TOT=     10.4084685 <-- SPRD
 Delta: O_D= -0.6051191E-01 O_OD=  0.6663780E-02 O_TOT= -0.5384813E-01 <-- DLTA
 ------------------------------------------------------------------------------
 Cycle:     17
  WF centre and spread    1  ( -0.000019, -0.000020,  0.000011 )     0.40916434
  WF centre and spread    2  ( -0.000000,  0.000000, -0.000001 )     0.34875193
  WF centre and spread    3  ( -0.000000, -0.000000, -0.000000 )     0.34887553
  WF centre and spread    4  ( -0.000002,  0.000002, -0.000002 )     0.40055117
  WF centre and spread    5  ( -0.000001, -0.000001, -0.000000 )     0.34893974
  WF centre and spread    6  (  4.176016,  4.176011,  4.175880 )     1.10521588
  WF centre and spread    7  (  4.177000,  4.177002,  4.177001 )     0.37074025
  WF centre and spread    8  (  4.177002,  4.177001,  4.177001 )     0.37094814
  WF centre and spread    9  (  4.176982,  4.176813,  4.176944 )     0.62031948
  WF centre and spread   10  (  4.177008,  4.177000,  4.177002 )     0.37106374
  WF centre and spread   11  (  2.087406,  2.087435,  2.093396 )     0.98194016
  WF centre and spread   12  (  2.079197,  2.088706,  2.088917 )     0.95038488
  WF centre and spread   13  (  2.088872,  2.084315,  2.089001 )     0.92284173
  WF centre and spread   14  (  6.266508,  6.266472,  6.260965 )     0.97806082
  WF centre and spread   15  (  6.274635,  6.265221,  6.265039 )     0.94971729
  WF centre and spread   16  (  6.265130,  6.269534,  6.265010 )     0.92264020
  Sum of centres and spreads ( 45.945734, 45.945491, 45.946164 )    10.40015527

     17    -0.831E-02     0.4187599038       10.4001552730       1.88  <-- CONV
        O_D=      0.0054174 O_OD=      0.7505489 O_TOT=     10.4001553 <-- SPRD
 Delta: O_D= -0.8056492E-02 O_OD= -0.2567841E-03 O_TOT= -0.8313276E-02 <-- DLTA
 ------------------------------------------------------------------------------
 Cycle:     18
  WF centre and spread    1  ( -0.000019, -0.000020,  0.000009 )     0.40902860
  WF centre and spread    2  ( -0.000000,  0.000000, -0.000001 )     0.34875995
  WF centre and spread    3  ( -0.000000, -0.000000, -0.000000 )     0.34888161
  WF centre and spread    4  ( -0.000002,  0.000002, -0.000003 )     0.40057678
  WF centre and spread    5  ( -0.000001, -0.000001, -0.000000 )     0.34894642
  WF centre and spread    6  (  4.180415,  4.180391,  4.161494 )     1.11557127
  WF centre and spread    7  (  4.177000,  4.177002,  4.177001 )     0.37075195
  WF centre and spread    8  (  4.177002,  4.177001,  4.177001 )     0.37095606
  WF centre and spread    9  (  4.176988,  4.176811,  4.176863 )     0.61820544
  WF centre and spread   10  (  4.177008,  4.177000,  4.177002 )     0.37107160
  WF centre and spread   11  (  2.087478,  2.087507,  2.092915 )     0.97855368
  WF centre and spread   12  (  2.079376,  2.088710,  2.088880 )     0.94901944
  WF centre and spread   13  (  2.088870,  2.084365,  2.088996 )     0.92255474
  WF centre and spread   14  (  6.266464,  6.266427,  6.261028 )     0.97577879
  WF centre and spread   15  (  6.274524,  6.265214,  6.265010 )     0.94851129
  WF centre and spread   16  (  6.265127,  6.269542,  6.265010 )     0.92237846
  Sum of centres and spreads ( 45.950229, 45.949951, 45.931206 )    10.39954608

     18    -0.609E-03     0.2060869392       10.3995460762       1.93  <-- CONV
        O_D=      0.0137420 O_OD=      0.7416151 O_TOT=     10.3995461 <-- SPRD
 Delta: O_D=  0.8324627E-02 O_OD= -0.8933824E-02 O_TOT= -0.6091968E-03 <-- DLTA
 ------------------------------------------------------------------------------
 Cycle:     19
  WF centre and spread    1  ( -0.000015, -0.000016,  0.000009 )     0.40904665
  WF centre and spread    2  ( -0.000000,  0.000000, -0.000001 )     0.34876071
  WF centre and spread    3  ( -0.000000, -0.000000, -0.000000 )     0.34888267
  WF centre and spread    4  ( -0.000001,  0.000002, -0.000002 )     0.40058445
  WF centre and spread    5  ( -0.000001, -0.000001, -0.000000 )     0.34894746
  WF centre and spread    6  (  4.177697,  4.177681,  4.171489 )     1.10683885
  WF centre and spread    7  (  4.177000,  4.177002,  4.177001 )     0.37075292
  WF centre and spread    8  (  4.177002,  4.177001,  4.177001 )     0.37095752
  WF centre and spread    9  (  4.176985,  4.176867,  4.176920 )     0.61840568
  WF centre and spread   10  (  4.177008,  4.177000,  4.177002 )     0.37107304
  WF centre and spread   11  (  2.087478,  2.087508,  2.093037 )     0.97885286
  WF centre and spread   12  (  2.079348,  2.088720,  2.088904 )     0.94917733
  WF centre and spread   13  (  2.088870,  2.084347,  2.088998 )     0.92256458
  WF centre and spread   14  (  6.266478,  6.266441,  6.261111 )     0.97593539
  WF centre and spread   15  (  6.274522,  6.265226,  6.265033 )     0.94845584
  WF centre and spread   16  (  6.265129,  6.269531,  6.265011 )     0.92234750
  Sum of centres and spreads ( 45.947499, 45.947308, 45.941513 )    10.39158347

     19    -0.796E-02     0.6885960295       10.3915834716       1.99  <-- CONV
        O_D=      0.0050367 O_OD=      0.7423578 O_TOT=     10.3915835 <-- SPRD
 Delta: O_D= -0.8705320E-02 O_OD=  0.7427151E-03 O_TOT= -0.7962605E-02 <-- DLTA
 ------------------------------------------------------------------------------
 Cycle:     20
  WF centre and spread    1  ( -0.000013, -0.000014,  0.000008 )     0.40898106
  WF centre and spread    2  ( -0.000000,  0.000000, -0.000001 )     0.34876489
  WF centre and spread    3  ( -0.000000, -0.000000, -0.000000 )     0.34888585
  WF centre and spread    4  ( -0.000001,  0.000002, -0.000001 )     0.40059728
  WF centre and spread    5  ( -0.000001, -0.000001, -0.000000 )     0.34895093
  WF centre and spread    6  (  4.175384,  4.175374,  4.179019 )     1.11066664
  WF centre and spread    7  (  4.177000,  4.177002,  4.177001 )     0.37075882
  WF centre and spread    8  (  4.177002,  4.177001,  4.177001 )     0.37096149
  WF centre and spread    9  (  4.176981,  4.176878,  4.176975 )     0.61731998
  WF centre and spread   10  (  4.177008,  4.177000,  4.177002 )     0.37107695
  WF centre and spread   11  (  2.087498,  2.087529,  2.093027 )     0.97755753
  WF centre and spread   12  (  2.079395,  2.088726,  2.088926 )     0.94856421
  WF centre and spread   13  (  2.088873,  2.084336,  2.088999 )     0.92243390
  WF centre and spread   14  (  6.266446,  6.266409,  6.261369 )     0.97437730
  WF centre and spread   15  (  6.274426,  6.265228,  6.265057 )     0.94780606
  WF centre and spread   16  (  6.265131,  6.269499,  6.265014 )     0.92221561
  Sum of centres and spreads ( 45.945128, 45.944968, 45.949397 )    10.38991850

     20    -0.166E-02     0.2226104601       10.3899184966       2.04  <-- CONV
        O_D=      0.0078863 O_OD=      0.7378432 O_TOT=     10.3899185 <-- SPRD
 Delta: O_D=  0.2849600E-02 O_OD= -0.4514575E-02 O_TOT= -0.1664975E-02 <-- DLTA
 ------------------------------------------------------------------------------
 Cycle:     21
  WF centre and spread    1  ( -0.000013, -0.000014,  0.000008 )     0.40898340
  WF centre and spread    2  ( -0.000000,  0.000000, -0.000001 )     0.34876511
  WF centre and spread    3  ( -0.000000, -0.000000, -0.000000 )     0.34888610
  WF centre and spread    4  ( -0.000001,  0.000002, -0.000001 )     0.40059892
  WF centre and spread    5  ( -0.000001, -0.000001, -0.000000 )     0.34895119
  WF centre and spread    6  (  4.175479,  4.175468,  4.178627 )     1.10727349
  WF centre and spread    7  (  4.177000,  4.177002,  4.177001 )     0.37075912
  WF centre and spread    8  (  4.177002,  4.177001,  4.177001 )     0.37096184
  WF centre and spread    9  (  4.176981,  4.176875,  4.176971 )     0.61733409
  WF centre and spread   10  (  4.177008,  4.177000,  4.177002 )     0.37107729
  WF centre and spread   11  (  2.087498,  2.087528,  2.093017 )     0.97755085
  WF centre and spread   12  (  2.079396,  2.088726,  2.088925 )     0.94855309
  WF centre and spread   13  (  2.088873,  2.084337,  2.088999 )     0.92242752
  WF centre and spread   14  (  6.266446,  6.266410,  6.261360 )     0.97439513
  WF centre and spread   15  (  6.274428,  6.265227,  6.265055 )     0.94780805
  WF centre and spread   16  (  6.265131,  6.269501,  6.265014 )     0.92221161
  Sum of centres and spreads ( 45.945226, 45.945061, 45.948978 )    10.38653681

     21    -0.338E-02     0.7976123636       10.3865368089       2.10  <-- CONV
        O_D=      0.0044853 O_OD=      0.7378625 O_TOT=     10.3865368 <-- SPRD
 Delta: O_D= -0.3400961E-02 O_OD=  0.1927294E-04 O_TOT= -0.3381688E-02 <-- DLTA
 ------------------------------------------------------------------------------
 Cycle:     22
  WF centre and spread    1  ( -0.000014, -0.000015,  0.000008 )     0.40897950
  WF centre and spread    2  ( -0.000000,  0.000000, -0.000001 )     0.34876538
  WF centre and spread    3  ( -0.000000, -0.000000, -0.000000 )     0.34888631
  WF centre and spread    4  ( -0.000001,  0.000002, -0.000001 )     0.40059978
  WF centre and spread    5  ( -0.000001, -0.000001, -0.000000 )     0.34895142
  WF centre and spread    6  (  4.176316,  4.176304,  4.175842 )     1.10686426
  WF centre and spread    7  (  4.177000,  4.177002,  4.177001 )     0.37075950
  WF centre and spread    8  (  4.177002,  4.177001,  4.177001 )     0.37096210
  WF centre and spread    9  (  4.176982,  4.176868,  4.176962 )     0.61726693
  WF centre and spread   10  (  4.177008,  4.177000,  4.177002 )     0.37107755
  WF centre and spread   11  (  2.087499,  2.087529,  2.092990 )     0.97744055
  WF centre and spread   12  (  2.079404,  2.088724,  2.088921 )     0.94849613
  WF centre and spread   13  (  2.088872,  2.084341,  2.088999 )     0.92241556
  WF centre and spread   14  (  6.266444,  6.266407,  6.261351 )     0.97432475
  WF centre and spread   15  (  6.274426,  6.265226,  6.265052 )     0.94778493
  WF centre and spread   16  (  6.265130,  6.269502,  6.265014 )     0.92220606
  Sum of centres and spreads ( 45.946067, 45.945889, 45.946140 )    10.38578070

     22    -0.756E-03     0.3489917090       10.3857807019       2.15  <-- CONV
        O_D=      0.0040151 O_OD=      0.7375765 O_TOT=     10.3857807 <-- SPRD
 Delta: O_D= -0.4701791E-03 O_OD= -0.2859279E-03 O_TOT= -0.7561070E-03 <-- DLTA
 ------------------------------------------------------------------------------
 Cycle:     23
  WF centre and spread    1  ( -0.000013, -0.000014,  0.000008 )     0.40893733
  WF centre and spread    2  ( -0.000000,  0.000000, -0.000001 )     0.34876763
  WF centre and spread    3  ( -0.000000, -0.000000, -0.000000 )     0.34888796
  WF centre and spread    4  ( -0.000001,  0.000002, -0.000002 )     0.40060563
  WF centre and spread    5  ( -0.000001, -0.000001, -0.000000 )     0.34895320
  WF centre and spread    6  (  4.177604,  4.177589,  4.172097 )     1.10869480
  WF centre and spread    7  (  4.177000,  4.177002,  4.177001 )     0.37076262
  WF centre and spread    8  (  4.177002,  4.177001,  4.177001 )     0.37096408
  WF centre and spread    9  (  4.176985,  4.176878,  4.176953 )     0.61664281
  WF centre and spread   10  (  4.177008,  4.177000,  4.177002 )     0.37107952
  WF centre and spread   11  (  2.087522,  2.087553,  2.092876 )     0.97652836
  WF centre and spread   12  (  2.079455,  2.088727,  2.088915 )     0.94813876
  WF centre and spread   13  (  2.088872,  2.084353,  2.088998 )     0.92234557
  WF centre and spread   14  (  6.266433,  6.266397,  6.261401 )     0.97367317
  WF centre and spread   15  (  6.274389,  6.265227,  6.265050 )     0.94743731
  WF centre and spread   16  (  6.265130,  6.269501,  6.265014 )     0.92213701
  Sum of centres and spreads ( 45.947385, 45.947214, 45.942313 )    10.38455577

     23    -0.122E-02     0.2309479929       10.3845557671       2.21  <-- CONV
        O_D=      0.0052030 O_OD=      0.7351637 O_TOT=     10.3845558 <-- SPRD
 Delta: O_D=  0.1187920E-02 O_OD= -0.2412854E-02 O_TOT= -0.1224935E-02 <-- DLTA
 ------------------------------------------------------------------------------
 Cycle:     24
  WF centre and spread    1  ( -0.000012, -0.000013,  0.000008 )     0.40893812
  WF centre and spread    2  ( -0.000000,  0.000000, -0.000001 )     0.34876776
  WF centre and spread    3  ( -0.000000, -0.000000, -0.000000 )     0.34888813
  WF centre and spread    4  ( -0.000000,  0.000002, -0.000001 )     0.40060662
  WF centre and spread    5  ( -0.000001, -0.000001, -0.000000 )     0.34895335
  WF centre and spread    6  (  4.174881,  4.174869,  4.180727 )     1.11588030
  WF centre and spread    7  (  4.177000,  4.177002,  4.177001 )     0.37076280
  WF centre and spread    8  (  4.177002,  4.177001,  4.177001 )     0.37096429
  WF centre and spread    9  (  4.176984,  4.176892,  4.176965 )     0.61665432
  WF centre and spread   10  (  4.177008,  4.177000,  4.177002 )     0.37107973
  WF centre and spread   11  (  2.087523,  2.087554,  2.092898 )     0.97655081
  WF centre and spread   12  (  2.079451,  2.088730,  2.088920 )     0.94816437
  WF centre and spread   13  (  2.088872,  2.084350,  2.088998 )     0.92234840
  WF centre and spread   14  (  6.266436,  6.266399,  6.261421 )     0.97368439
  WF centre and spread   15  (  6.274387,  6.265230,  6.265055 )     0.94741119
  WF centre and spread   16  (  6.265130,  6.269498,  6.265014 )     0.92212992
  Sum of centres and spreads ( 45.944661, 45.944513, 45.951008 )    10.39178449

     24     0.723E-02     1.2336151265       10.3917844928       2.27  <-- CONV
        O_D=      0.0123751 O_OD=      0.7352204 O_TOT=     10.3917845 <-- SPRD
 Delta: O_D=  0.7172057E-02 O_OD=  0.5666877E-04 O_TOT=  0.7228726E-02 <-- DLTA
 ------------------------------------------------------------------------------
 Cycle:     25
  WF centre and spread    1  ( -0.000016, -0.000017,  0.000009 )     0.40896893
  WF centre and spread    2  ( -0.000000,  0.000000, -0.000001 )     0.34876807
  WF centre and spread    3  ( -0.000000, -0.000000, -0.000000 )     0.34888885
  WF centre and spread    4  ( -0.000002,  0.000002, -0.000002 )     0.40061325
  WF centre and spread    5  ( -0.000001, -0.000001, -0.000000 )     0.34895407
  WF centre and spread    6  (  4.178666,  4.178648,  4.167947 )     1.11620563
  WF centre and spread    7  (  4.177000,  4.177002,  4.177001 )     0.37076315
  WF centre and spread    8  (  4.177002,  4.177001,  4.177001 )     0.37096538
  WF centre and spread    9  (  4.176986,  4.176847,  4.176928 )     0.61699287
  WF centre and spread   10  (  4.177008,  4.177000,  4.177002 )     0.37108084
  WF centre and spread   11  (  2.087508,  2.087539,  2.092863 )     0.97691150
  WF centre and spread   12  (  2.079442,  2.088720,  2.088904 )     0.94820892
  WF centre and spread   13  (  2.088871,  2.084355,  2.088997 )     0.92233406
  WF centre and spread   14  (  6.266437,  6.266401,  6.261327 )     0.97404032
  WF centre and spread   15  (  6.274415,  6.265223,  6.265040 )     0.94760911
  WF centre and spread   16  (  6.265130,  6.269511,  6.265013 )     0.92214506
  Sum of centres and spreads ( 45.948447, 45.948230, 45.938028 )    10.39345000

     25     0.167E-02     2.6676872492       10.3934499981       2.32  <-- CONV
        O_D=      0.0128909 O_OD=      0.7363701 O_TOT=     10.3934500 <-- SPRD
 Delta: O_D=  0.5157970E-03 O_OD=  0.1149708E-02 O_TOT=  0.1665505E-02 <-- DLTA
 ------------------------------------------------------------------------------
 Cycle:     26
  WF centre and spread    1  ( -0.000014, -0.000015,  0.000008 )     0.40899238
  WF centre and spread    2  ( -0.000000,  0.000000, -0.000001 )     0.34876865
  WF centre and spread    3  ( -0.000000, -0.000000, -0.000000 )     0.34888980
  WF centre and spread    4  ( -0.000001,  0.000002, -0.000002 )     0.40062060
  WF centre and spread    5  ( -0.000001, -0.000001, -0.000000 )     0.34895500
  WF centre and spread    6  (  4.177305,  4.177289,  4.172669 )     1.10741038
  WF centre and spread    7  (  4.177000,  4.177002,  4.177001 )     0.37076386
  WF centre and spread    8  (  4.177002,  4.177001,  4.177001 )     0.37096671
  WF centre and spread    9  (  4.176985,  4.176866,  4.176944 )     0.61726616
  WF centre and spread   10  (  4.177008,  4.177000,  4.177002 )     0.37108218
  WF centre and spread   11  (  2.087504,  2.087535,  2.092916 )     0.97724158
  WF centre and spread   12  (  2.079423,  2.088722,  2.088911 )     0.94833341
  WF centre and spread   13  (  2.088871,  2.084348,  2.088998 )     0.92233655
  WF centre and spread   14  (  6.266447,  6.266410,  6.261332 )     0.97432692
  WF centre and spread   15  (  6.274426,  6.265228,  6.265047 )     0.94765835
  WF centre and spread   16  (  6.265130,  6.269511,  6.265013 )     0.92213292
  Sum of centres and spreads ( 45.947085, 45.946896, 45.942840 )    10.38574543

     26    -0.770E-02     0.9260207681       10.3857454324       2.38  <-- CONV
        O_D=      0.0041861 O_OD=      0.7373703 O_TOT=     10.3857454 <-- SPRD
 Delta: O_D= -0.8704849E-02 O_OD=  0.1000284E-02 O_TOT= -0.7704566E-02 <-- DLTA
 ------------------------------------------------------------------------------
 Cycle:     27
  WF centre and spread    1  ( -0.000013, -0.000014,  0.000008 )     0.40898832
  WF centre and spread    2  ( -0.000000,  0.000000, -0.000001 )     0.34876896
  WF centre and spread    3  ( -0.000000, -0.000000, -0.000000 )     0.34889006
  WF centre and spread    4  ( -0.000001,  0.000002, -0.000002 )     0.40062174
  WF centre and spread    5  ( -0.000001, -0.000001, -0.000000 )     0.34895527
  WF centre and spread    6  (  4.176658,  4.176643,  4.174902 )     1.10707799
  WF centre and spread    7  (  4.177000,  4.177002,  4.177001 )     0.37076428
  WF centre and spread    8  (  4.177002,  4.177001,  4.177001 )     0.37096703
  WF centre and spread    9  (  4.176985,  4.176875,  4.176952 )     0.61720796
  WF centre and spread   10  (  4.177008,  4.177000,  4.177002 )     0.37108250
  WF centre and spread   11  (  2.087507,  2.087538,  2.092921 )     0.97716952
  WF centre and spread   12  (  2.079425,  2.088723,  2.088914 )     0.94831204
  WF centre and spread   13  (  2.088871,  2.084346,  2.088998 )     0.92233114
  WF centre and spread   14  (  6.266447,  6.266410,  6.261353 )     0.97425621
  WF centre and spread   15  (  6.274420,  6.265230,  6.265050 )     0.94760637
  WF centre and spread   16  (  6.265131,  6.269508,  6.265014 )     0.92212170
  Sum of centres and spreads ( 45.946438, 45.946263, 45.945113 )    10.38512107

     27    -0.624E-03     0.2668723598       10.3851210733       2.43  <-- CONV
        O_D=      0.0037799 O_OD=      0.7371521 O_TOT=     10.3851211 <-- SPRD
 Delta: O_D= -0.4061279E-03 O_OD= -0.2182313E-03 O_TOT= -0.6243592E-03 <-- DLTA
 ------------------------------------------------------------------------------
 Cycle:     28
  WF centre and spread    1  ( -0.000014, -0.000015,  0.000008 )     0.40898728
  WF centre and spread    2  ( -0.000000,  0.000000, -0.000001 )     0.34876901
  WF centre and spread    3  ( -0.000000, -0.000000, -0.000000 )     0.34889010
  WF centre and spread    4  ( -0.000001,  0.000002, -0.000002 )     0.40062187
  WF centre and spread    5  ( -0.000001, -0.000001, -0.000000 )     0.34895531
  WF centre and spread    6  (  4.177178,  4.177163,  4.173273 )     1.10694954
  WF centre and spread    7  (  4.177000,  4.177002,  4.177001 )     0.37076436
  WF centre and spread    8  (  4.177002,  4.177001,  4.177001 )     0.37096707
  WF centre and spread    9  (  4.176985,  4.176873,  4.176950 )     0.61719147
  WF centre and spread   10  (  4.177008,  4.177000,  4.177002 )     0.37108254
  WF centre and spread   11  (  2.087507,  2.087538,  2.092916 )     0.97714598
  WF centre and spread   12  (  2.079427,  2.088723,  2.088913 )     0.94829872
  WF centre and spread   13  (  2.088871,  2.084347,  2.088998 )     0.92232850
  WF centre and spread   14  (  6.266446,  6.266410,  6.261352 )     0.97423616
  WF centre and spread   15  (  6.274419,  6.265229,  6.265050 )     0.94760109
  WF centre and spread   16  (  6.265131,  6.269508,  6.265014 )     0.92212063
  Sum of centres and spreads ( 45.946959, 45.946781, 45.943475 )    10.38490965

     28    -0.211E-03     0.5334684427       10.3849096535       2.49  <-- CONV
        O_D=      0.0036386 O_OD=      0.7370820 O_TOT=     10.3849097 <-- SPRD
 Delta: O_D= -0.1412855E-03 O_OD= -0.7013425E-04 O_TOT= -0.2114197E-03 <-- DLTA
 ------------------------------------------------------------------------------
 Cycle:     29
  WF centre and spread    1  ( -0.000013, -0.000014,  0.000008 )     0.40897894
  WF centre and spread    2  ( -0.000000,  0.000000, -0.000001 )     0.34876944
  WF centre and spread    3  ( -0.000000, -0.000000, -0.000000 )     0.34889042
  WF centre and spread    4  ( -0.000001,  0.000002, -0.000002 )     0.40062296
  WF centre and spread    5  ( -0.000001, -0.000001, -0.000000 )     0.34895565
  WF centre and spread    6  (  4.176569,  4.176555,  4.175318 )     1.10689701
  WF centre and spread    7  (  4.177000,  4.177002,  4.177001 )     0.37076495
  WF centre and spread    8  (  4.177002,  4.177001,  4.177001 )     0.37096745
  WF centre and spread    9  (  4.176985,  4.176880,  4.176956 )     0.61707431
  WF centre and spread   10  (  4.177008,  4.177000,  4.177002 )     0.37108292
  WF centre and spread   11  (  2.087512,  2.087543,  2.092910 )     0.97699592
  WF centre and spread   12  (  2.079433,  2.088725,  2.088915 )     0.94824321
  WF centre and spread   13  (  2.088872,  2.084347,  2.088998 )     0.92231765
  WF centre and spread   14  (  6.266444,  6.266408,  6.261377 )     0.97409785
  WF centre and spread   15  (  6.274409,  6.265231,  6.265053 )     0.94752472
  WF centre and spread   16  (  6.265131,  6.269506,  6.265014 )     0.92210593
  Sum of centres and spreads ( 45.946351, 45.946183, 45.945551 )    10.38428933

     29    -0.620E-03     0.3915567670       10.3842893300       2.54  <-- CONV
        O_D=      0.0034692 O_OD=      0.7366311 O_TOT=     10.3842893 <-- SPRD
 Delta: O_D= -0.1693980E-03 O_OD= -0.4509255E-03 O_TOT= -0.6203235E-03 <-- DLTA
 ------------------------------------------------------------------------------
 Cycle:     30
  WF centre and spread    1  ( -0.000013, -0.000014,  0.000008 )     0.40897692
  WF centre and spread    2  ( -0.000000,  0.000000, -0.000001 )     0.34876954
  WF centre and spread    3  ( -0.000000, -0.000000, -0.000000 )     0.34889049
  WF centre and spread    4  ( -0.000001,  0.000002, -0.000002 )     0.40062319
  WF centre and spread    5  ( -0.000001, -0.000001, -0.000000 )     0.34895573
  WF centre and spread    6  (  4.176777,  4.176763,  4.174691 )     1.10680288
  WF centre and spread    7  (  4.177000,  4.177002,  4.177001 )     0.37076509
  WF centre and spread    8  (  4.177002,  4.177001,  4.177001 )     0.37096753
  WF centre and spread    9  (  4.176985,  4.176880,  4.176956 )     0.61704508
  WF centre and spread   10  (  4.177008,  4.177000,  4.177002 )     0.37108300
  WF centre and spread   11  (  2.087513,  2.087544,  2.092906 )     0.97695722
  WF centre and spread   12  (  2.079436,  2.088725,  2.088915 )     0.94822629
  WF centre and spread   13  (  2.088872,  2.084347,  2.088998 )     0.92231440
  WF centre and spread   14  (  6.266443,  6.266407,  6.261381 )     0.97406323
  WF centre and spread   15  (  6.274407,  6.265231,  6.265053 )     0.94750914
  WF centre and spread   16  (  6.265131,  6.269505,  6.265014 )     0.92210297
  Sum of centres and spreads ( 45.946558, 45.946391, 45.944924 )    10.38405270

     30    -0.237E-03     0.4474600420       10.3840526998       2.60  <-- CONV
        O_D=      0.0033481 O_OD=      0.7365156 O_TOT=     10.3840527 <-- SPRD
 Delta: O_D= -0.1211509E-03 O_OD= -0.1154794E-03 O_TOT= -0.2366303E-03 <-- DLTA
 ------------------------------------------------------------------------------
 Cycle:     31
  WF centre and spread    1  ( -0.000013, -0.000014,  0.000008 )     0.40895434
  WF centre and spread    2  ( -0.000000,  0.000000, -0.000001 )     0.34877053
  WF centre and spread    3  ( -0.000000, -0.000000, -0.000000 )     0.34889116
  WF centre and spread    4  ( -0.000001,  0.000002, -0.000001 )     0.40062500
  WF centre and spread    5  ( -0.000001, -0.000001, -0.000000 )     0.34895645
  WF centre and spread    6  (  4.177409,  4.177396,  4.172908 )     1.10840944
  WF centre and spread    7  (  4.177000,  4.177002,  4.177001 )     0.37076645
  WF centre and spread    8  (  4.177002,  4.177001,  4.177001 )     0.37096830
  WF centre and spread    9  (  4.176985,  4.176885,  4.176960 )     0.61672705
  WF centre and spread   10  (  4.177008,  4.177000,  4.177002 )     0.37108376
  WF centre and spread   11  (  2.087522,  2.087554,  2.092870 )     0.97654478
  WF centre and spread   12  (  2.079457,  2.088726,  2.088915 )     0.94805663
  WF centre and spread   13  (  2.088872,  2.084350,  2.088997 )     0.92228358
  WF centre and spread   14  (  6.266436,  6.266400,  6.261426 )     0.97369244
  WF centre and spread   15  (  6.274385,  6.265231,  6.265055 )     0.94733614
  WF centre and spread   16  (  6.265131,  6.269501,  6.265015 )     0.92207195
  Sum of centres and spreads ( 45.947193, 45.947032, 45.943156 )    10.38413802

     31     0.853E-04     0.1640635442       10.3841380153       2.65  <-- CONV
        O_D=      0.0046618 O_OD=      0.7352872 O_TOT=     10.3841380 <-- SPRD
 Delta: O_D=  0.1313718E-02 O_OD= -0.1228402E-02 O_TOT=  0.8531553E-04 <-- DLTA
 ------------------------------------------------------------------------------
 Cycle:     32
  WF centre and spread    1  ( -0.000008, -0.000009,  0.000007 )     0.40897011
  WF centre and spread    2  ( -0.000000,  0.000000, -0.000001 )     0.34877084
  WF centre and spread    3  ( -0.000000, -0.000000, -0.000000 )     0.34889178
  WF centre and spread    4  (  0.000001,  0.000001, -0.000001 )     0.40062976
  WF centre and spread    5  ( -0.000001, -0.000001,  0.000000 )     0.34895699
  WF centre and spread    6  (  4.172989,  4.172983,  4.188166 )     1.14284880
  WF centre and spread    7  (  4.177000,  4.177002,  4.177001 )     0.37076678
  WF centre and spread    8  (  4.177002,  4.177001,  4.177001 )     0.37096911
  WF centre and spread    9  (  4.176981,  4.176947,  4.177012 )     0.61695231
  WF centre and spread   10  (  4.177008,  4.177000,  4.177002 )     0.37108457
  WF centre and spread   11  (  2.087527,  2.087559,  2.092979 )     0.97686719
  WF centre and spread   12  (  2.079432,  2.088737,  2.088937 )     0.94825514
  WF centre and spread   13  (  2.088872,  2.084335,  2.088999 )     0.92230961
  WF centre and spread   14  (  6.266450,  6.266414,  6.261496 )     0.97396211
  WF centre and spread   15  (  6.274383,  6.265243,  6.265076 )     0.94730518
  WF centre and spread   16  (  6.265132,  6.269491,  6.265016 )     0.92205369
  Sum of centres and spreads ( 45.942770, 45.942703, 45.958691 )    10.41959397

     32     0.355E-01     3.5715474397       10.4195939705       2.71  <-- CONV
        O_D=      0.0390418 O_OD=      0.7363631 O_TOT=     10.4195940 <-- SPRD
 Delta: O_D=  0.3438000E-01 O_OD=  0.1075959E-02 O_TOT=  0.3545596E-01 <-- DLTA
 ------------------------------------------------------------------------------
 Cycle:     33
  WF centre and spread    1  ( -0.000008, -0.000009,  0.000006 )     0.40903336
  WF centre and spread    2  ( -0.000000,  0.000000, -0.000001 )     0.34877159
  WF centre and spread    3  ( -0.000000, -0.000000, -0.000000 )     0.34889349
  WF centre and spread    4  (  0.000001,  0.000001, -0.000001 )     0.40064463
  WF centre and spread    5  ( -0.000001, -0.000001,  0.000000 )     0.34895862
  WF centre and spread    6  (  4.174930,  4.174923,  4.182304 )     1.11787010
  WF centre and spread    7  (  4.177000,  4.177002,  4.177001 )     0.37076761
  WF centre and spread    8  (  4.177002,  4.177001,  4.177001 )     0.37097158
  WF centre and spread    9  (  4.176981,  4.176947,  4.177013 )     0.61770536
  WF centre and spread   10  (  4.177008,  4.177000,  4.177002 )     0.37108705
  WF centre and spread   11  (  2.087509,  2.087540,  2.093047 )     0.97774407
  WF centre and spread   12  (  2.079391,  2.088733,  2.088937 )     0.94853938
  WF centre and spread   13  (  2.088872,  2.084326,  2.088999 )     0.92231710
  WF centre and spread   14  (  6.266467,  6.266432,  6.261429 )     0.97479977
  WF centre and spread   15  (  6.274424,  6.265247,  6.265077 )     0.94757038
  WF centre and spread   16  (  6.265132,  6.269499,  6.265015 )     0.92205728
  Sum of centres and spreads ( 45.944708, 45.944643, 45.952831 )    10.39773136

     33    -0.219E-01     1.5183528383       10.3977313566       2.77  <-- CONV
        O_D=      0.0143145 O_OD=      0.7392278 O_TOT=     10.3977314 <-- SPRD
 Delta: O_D= -0.2472732E-01 O_OD=  0.2864705E-02 O_TOT= -0.2186261E-01 <-- DLTA
[...]
 ------------------------------------------------------------------------------
 Cycle:    991
  WF centre and spread    1  (  0.000000,  0.000000, -0.000005 )     0.41354270
  WF centre and spread    2  (  0.000001,  0.000000,  0.000000 )     0.34951733
  WF centre and spread    3  ( -0.000000,  0.000001,  0.000000 )     0.34966611
  WF centre and spread    4  (  0.000001, -0.000000, -0.000000 )     0.40435039
  WF centre and spread    5  ( -0.000001,  0.000000,  0.000000 )     0.34975753
  WF centre and spread    6  (  4.176769,  4.176781,  4.178039 )     1.11901661
  WF centre and spread    7  (  4.177001,  4.177002,  4.177002 )     0.37157047
  WF centre and spread    8  (  4.177002,  4.177002,  4.177002 )     0.37175901
  WF centre and spread    9  (  4.176994,  4.177000,  4.177016 )     0.61179973
  WF centre and spread   10  (  4.177008,  4.177001,  4.177002 )     0.37183791
  WF centre and spread   11  (  2.087390,  2.087430,  2.092638 )     0.97115689
  WF centre and spread   12  (  2.079204,  2.088739,  2.088969 )     0.93899093
  WF centre and spread   13  (  2.088872,  2.084178,  2.089013 )     0.91614933
  WF centre and spread   14  (  6.266634,  6.266593,  6.261632 )     0.96993213
  WF centre and spread   15  (  6.274732,  6.265281,  6.265043 )     0.93841148
  WF centre and spread   16  (  6.265135,  6.269746,  6.264998 )     0.91595062
  Sum of centres and spreads ( 45.946743, 45.946753, 45.948350 )    10.36340918

    991    -0.146E-04     0.1897125876       10.3634091800      55.75  <-- CONV
        O_D=      0.0031810 O_OD=      0.7160392 O_TOT=     10.3634092 <-- SPRD
 Delta: O_D= -0.2375937E-05 O_OD= -0.1227354E-04 O_TOT= -0.1464948E-04 <-- DLTA
 ------------------------------------------------------------------------------
 Cycle:    992
  WF centre and spread    1  (  0.000000,  0.000000, -0.000005 )     0.41354248
  WF centre and spread    2  (  0.000001,  0.000000,  0.000000 )     0.34951733
  WF centre and spread    3  ( -0.000000,  0.000001,  0.000000 )     0.34966610
  WF centre and spread    4  (  0.000001, -0.000000, -0.000000 )     0.40435035
  WF centre and spread    5  ( -0.000001,  0.000000,  0.000000 )     0.34975753
  WF centre and spread    6  (  4.176777,  4.176789,  4.178016 )     1.11901607
  WF centre and spread    7  (  4.177001,  4.177002,  4.177002 )     0.37157046
  WF centre and spread    8  (  4.177002,  4.177002,  4.177002 )     0.37175900
  WF centre and spread    9  (  4.176994,  4.177000,  4.177016 )     0.61179773
  WF centre and spread   10  (  4.177008,  4.177001,  4.177002 )     0.37183790
  WF centre and spread   11  (  2.087390,  2.087430,  2.092638 )     0.97115403
  WF centre and spread   12  (  2.079204,  2.088739,  2.088969 )     0.93899003
  WF centre and spread   13  (  2.088872,  2.084178,  2.089013 )     0.91614927
  WF centre and spread   14  (  6.266634,  6.266593,  6.261633 )     0.96992971
  WF centre and spread   15  (  6.274731,  6.265281,  6.265043 )     0.93841069
  WF centre and spread   16  (  6.265135,  6.269746,  6.264998 )     0.91595058
  Sum of centres and spreads ( 45.946751, 45.946761, 45.948326 )    10.36339926

    992    -0.992E-05     0.1817776001       10.3633992602      55.80  <-- CONV
        O_D=      0.0031795 O_OD=      0.7160307 O_TOT=     10.3633993 <-- SPRD
 Delta: O_D= -0.1459362E-05 O_OD= -0.8460511E-05 O_TOT= -0.9919873E-05 <-- DLTA
 ------------------------------------------------------------------------------
 Cycle:    993
  WF centre and spread    1  (  0.000000,  0.000000, -0.000005 )     0.41354214
  WF centre and spread    2  (  0.000001,  0.000000,  0.000000 )     0.34951733
  WF centre and spread    3  ( -0.000000,  0.000001,  0.000000 )     0.34966610
  WF centre and spread    4  (  0.000001, -0.000000, -0.000000 )     0.40435028
  WF centre and spread    5  ( -0.000001,  0.000000,  0.000000 )     0.34975752
  WF centre and spread    6  (  4.176786,  4.176798,  4.177987 )     1.11901547
  WF centre and spread    7  (  4.177001,  4.177002,  4.177002 )     0.37157046
  WF centre and spread    8  (  4.177002,  4.177002,  4.177002 )     0.37175899
  WF centre and spread    9  (  4.176994,  4.177000,  4.177016 )     0.61179476
  WF centre and spread   10  (  4.177008,  4.177001,  4.177002 )     0.37183789
  WF centre and spread   11  (  2.087390,  2.087430,  2.092637 )     0.97114977
  WF centre and spread   12  (  2.079205,  2.088739,  2.088969 )     0.93898870
  WF centre and spread   13  (  2.088872,  2.084178,  2.089013 )     0.91614917
  WF centre and spread   14  (  6.266634,  6.266592,  6.261633 )     0.96992610
  WF centre and spread   15  (  6.274731,  6.265281,  6.265043 )     0.93840949
  WF centre and spread   16  (  6.265135,  6.269746,  6.264998 )     0.91595052
  Sum of centres and spreads ( 45.946760, 45.946770, 45.948298 )    10.36338469

    993    -0.146E-04     0.1804506902       10.3633846907      55.86  <-- CONV
        O_D=      0.0031776 O_OD=      0.7160181 O_TOT=     10.3633847 <-- SPRD
 Delta: O_D= -0.1964151E-05 O_OD= -0.1260533E-04 O_TOT= -0.1456948E-04 <-- DLTA
 ------------------------------------------------------------------------------
 Cycle:    994
  WF centre and spread    1  (  0.000000,  0.000000, -0.000005 )     0.41354164
  WF centre and spread    2  (  0.000001,  0.000000,  0.000000 )     0.34951732
  WF centre and spread    3  ( -0.000000,  0.000001,  0.000000 )     0.34966609
  WF centre and spread    4  (  0.000001, -0.000000, -0.000000 )     0.40435018
  WF centre and spread    5  ( -0.000001,  0.000000,  0.000000 )     0.34975751
  WF centre and spread    6  (  4.176793,  4.176806,  4.177965 )     1.11901454
  WF centre and spread    7  (  4.177001,  4.177002,  4.177002 )     0.37157046
  WF centre and spread    8  (  4.177002,  4.177002,  4.177002 )     0.37175898
  WF centre and spread    9  (  4.176994,  4.177000,  4.177016 )     0.61179029
  WF centre and spread   10  (  4.177008,  4.177001,  4.177002 )     0.37183788
  WF centre and spread   11  (  2.087391,  2.087431,  2.092637 )     0.97114338
  WF centre and spread   12  (  2.079205,  2.088739,  2.088969 )     0.93898672
  WF centre and spread   13  (  2.088872,  2.084178,  2.089013 )     0.91614903
  WF centre and spread   14  (  6.266634,  6.266592,  6.261633 )     0.96992068
  WF centre and spread   15  (  6.274731,  6.265281,  6.265043 )     0.93840768
  WF centre and spread   16  (  6.265135,  6.269746,  6.264998 )     0.91595042
  Sum of centres and spreads ( 45.946768, 45.946778, 45.948274 )    10.36336281

    994    -0.219E-04     0.1840719816       10.3633628057      55.91  <-- CONV
        O_D=      0.0031746 O_OD=      0.7159992 O_TOT=     10.3633628 <-- SPRD
 Delta: O_D= -0.2975631E-05 O_OD= -0.1890938E-04 O_TOT= -0.2188501E-04 <-- DLTA
 ------------------------------------------------------------------------------
 Cycle:    995
  WF centre and spread    1  (  0.000000,  0.000000, -0.000005 )     0.41354139
  WF centre and spread    2  (  0.000001,  0.000000,  0.000000 )     0.34951732
  WF centre and spread    3  ( -0.000000,  0.000001,  0.000000 )     0.34966608
  WF centre and spread    4  (  0.000001, -0.000000, -0.000000 )     0.40435014
  WF centre and spread    5  ( -0.000001,  0.000000,  0.000000 )     0.34975750
  WF centre and spread    6  (  4.176773,  4.176785,  4.178027 )     1.11901385
  WF centre and spread    7  (  4.177001,  4.177002,  4.177002 )     0.37157046
  WF centre and spread    8  (  4.177002,  4.177002,  4.177002 )     0.37175897
  WF centre and spread    9  (  4.176994,  4.177000,  4.177016 )     0.61178808
  WF centre and spread   10  (  4.177008,  4.177001,  4.177002 )     0.37183788
  WF centre and spread   11  (  2.087391,  2.087431,  2.092636 )     0.97114024
  WF centre and spread   12  (  2.079205,  2.088739,  2.088969 )     0.93898581
  WF centre and spread   13  (  2.088872,  2.084178,  2.089013 )     0.91614898
  WF centre and spread   14  (  6.266634,  6.266592,  6.261633 )     0.96991799
  WF centre and spread   15  (  6.274731,  6.265281,  6.265043 )     0.93840672
  WF centre and spread   16  (  6.265135,  6.269746,  6.264998 )     0.91595035
  Sum of centres and spreads ( 45.946747, 45.946758, 45.948337 )    10.36335178

    995    -0.110E-04     0.1889404348       10.3633517751      55.97  <-- CONV
        O_D=      0.0031729 O_OD=      0.7159899 O_TOT=     10.3633518 <-- SPRD
 Delta: O_D= -0.1701508E-05 O_OD= -0.9329057E-05 O_TOT= -0.1103056E-04 <-- DLTA
 ------------------------------------------------------------------------------
 Cycle:    996
  WF centre and spread    1  (  0.000000,  0.000000, -0.000005 )     0.41354129
  WF centre and spread    2  (  0.000001,  0.000000,  0.000000 )     0.34951732
  WF centre and spread    3  ( -0.000000,  0.000001,  0.000000 )     0.34966608
  WF centre and spread    4  (  0.000001, -0.000000, -0.000000 )     0.40435012
  WF centre and spread    5  ( -0.000001,  0.000000,  0.000000 )     0.34975750
  WF centre and spread    6  (  4.176773,  4.176785,  4.178028 )     1.11901368
  WF centre and spread    7  (  4.177001,  4.177002,  4.177002 )     0.37157046
  WF centre and spread    8  (  4.177002,  4.177002,  4.177002 )     0.37175897
  WF centre and spread    9  (  4.176994,  4.177000,  4.177016 )     0.61178720
  WF centre and spread   10  (  4.177008,  4.177001,  4.177002 )     0.37183788
  WF centre and spread   11  (  2.087391,  2.087431,  2.092636 )     0.97113898
  WF centre and spread   12  (  2.079205,  2.088739,  2.088969 )     0.93898543
  WF centre and spread   13  (  2.088872,  2.084178,  2.089013 )     0.91614895
  WF centre and spread   14  (  6.266634,  6.266592,  6.261633 )     0.96991692
  WF centre and spread   15  (  6.274731,  6.265281,  6.265043 )     0.93840635
  WF centre and spread   16  (  6.265135,  6.269746,  6.264998 )     0.91595033
  Sum of centres and spreads ( 45.946747, 45.946758, 45.948337 )    10.36334745

    996    -0.432E-05     0.1857804047       10.3633474545      56.02  <-- CONV
        O_D=      0.0031723 O_OD=      0.7159861 O_TOT=     10.3633475 <-- SPRD
 Delta: O_D= -0.5794595E-06 O_OD= -0.3741090E-05 O_TOT= -0.4320549E-05 <-- DLTA
 ------------------------------------------------------------------------------
 Cycle:    997
  WF centre and spread    1  (  0.000000,  0.000000, -0.000005 )     0.41354099
  WF centre and spread    2  (  0.000001,  0.000000,  0.000000 )     0.34951732
  WF centre and spread    3  ( -0.000000,  0.000001,  0.000000 )     0.34966607
  WF centre and spread    4  (  0.000001, -0.000000, -0.000000 )     0.40435006
  WF centre and spread    5  ( -0.000001,  0.000000,  0.000000 )     0.34975749
  WF centre and spread    6  (  4.176781,  4.176793,  4.178002 )     1.11901289
  WF centre and spread    7  (  4.177001,  4.177002,  4.177002 )     0.37157046
  WF centre and spread    8  (  4.177002,  4.177002,  4.177002 )     0.37175896
  WF centre and spread    9  (  4.176994,  4.177000,  4.177016 )     0.61178452
  WF centre and spread   10  (  4.177008,  4.177001,  4.177002 )     0.37183787
  WF centre and spread   11  (  2.087391,  2.087431,  2.092636 )     0.97113516
  WF centre and spread   12  (  2.079205,  2.088739,  2.088969 )     0.93898423
  WF centre and spread   13  (  2.088872,  2.084178,  2.089013 )     0.91614886
  WF centre and spread   14  (  6.266633,  6.266592,  6.261634 )     0.96991367
  WF centre and spread   15  (  6.274731,  6.265281,  6.265043 )     0.93840528
  WF centre and spread   16  (  6.265135,  6.269746,  6.264998 )     0.91595028
  Sum of centres and spreads ( 45.946756, 45.946766, 45.948311 )    10.36333413

    997    -0.133E-04     0.1867545441       10.3633341308      56.08  <-- CONV
        O_D=      0.0031703 O_OD=      0.7159748 O_TOT=     10.3633341 <-- SPRD
 Delta: O_D= -0.2015884E-05 O_OD= -0.1130783E-04 O_TOT= -0.1332372E-04 <-- DLTA
 ------------------------------------------------------------------------------
 Cycle:    998
  WF centre and spread    1  (  0.000000,  0.000000, -0.000005 )     0.41354077
  WF centre and spread    2  (  0.000001,  0.000000,  0.000000 )     0.34951732
  WF centre and spread    3  ( -0.000000,  0.000001,  0.000000 )     0.34966607
  WF centre and spread    4  (  0.000001, -0.000000, -0.000000 )     0.40435001
  WF centre and spread    5  ( -0.000001,  0.000000,  0.000000 )     0.34975749
  WF centre and spread    6  (  4.176788,  4.176800,  4.177981 )     1.11901242
  WF centre and spread    7  (  4.177001,  4.177002,  4.177002 )     0.37157046
  WF centre and spread    8  (  4.177002,  4.177002,  4.177002 )     0.37175896
  WF centre and spread    9  (  4.176994,  4.177000,  4.177016 )     0.61178252
  WF centre and spread   10  (  4.177008,  4.177001,  4.177002 )     0.37183787
  WF centre and spread   11  (  2.087391,  2.087431,  2.092635 )     0.97113231
  WF centre and spread   12  (  2.079205,  2.088739,  2.088969 )     0.93898334
  WF centre and spread   13  (  2.088872,  2.084178,  2.089013 )     0.91614880
  WF centre and spread   14  (  6.266633,  6.266592,  6.261634 )     0.96991125
  WF centre and spread   15  (  6.274730,  6.265281,  6.265043 )     0.93840448
  WF centre and spread   16  (  6.265135,  6.269746,  6.264998 )     0.91595023
  Sum of centres and spreads ( 45.946763, 45.946773, 45.948290 )    10.36332429

    998    -0.985E-05     0.1809906951       10.3633242858      56.13  <-- CONV
        O_D=      0.0031689 O_OD=      0.7159663 O_TOT=     10.3633243 <-- SPRD
 Delta: O_D= -0.1388856E-05 O_OD= -0.8456213E-05 O_TOT= -0.9845069E-05 <-- DLTA
 ------------------------------------------------------------------------------
 Cycle:    999
  WF centre and spread    1  (  0.000000,  0.000000, -0.000005 )     0.41354043
  WF centre and spread    2  (  0.000001,  0.000000,  0.000000 )     0.34951732
  WF centre and spread    3  ( -0.000000,  0.000001,  0.000000 )     0.34966606
  WF centre and spread    4  (  0.000001, -0.000000, -0.000000 )     0.40434995
  WF centre and spread    5  ( -0.000001,  0.000000,  0.000000 )     0.34975748
  WF centre and spread    6  (  4.176796,  4.176809,  4.177956 )     1.11901188
  WF centre and spread    7  (  4.177001,  4.177002,  4.177002 )     0.37157046
  WF centre and spread    8  (  4.177002,  4.177002,  4.177002 )     0.37175895
  WF centre and spread    9  (  4.176994,  4.177000,  4.177016 )     0.61177952
  WF centre and spread   10  (  4.177008,  4.177001,  4.177002 )     0.37183786
  WF centre and spread   11  (  2.087391,  2.087431,  2.092635 )     0.97112802
  WF centre and spread   12  (  2.079206,  2.088739,  2.088969 )     0.93898200
  WF centre and spread   13  (  2.088872,  2.084178,  2.089013 )     0.91614870
  WF centre and spread   14  (  6.266633,  6.266592,  6.261634 )     0.96990760
  WF centre and spread   15  (  6.274730,  6.265281,  6.265043 )     0.93840327
  WF centre and spread   16  (  6.265135,  6.269746,  6.264998 )     0.91595017
  Sum of centres and spreads ( 45.946771, 45.946781, 45.948264 )    10.36330966

    999    -0.146E-04     0.1798689313       10.3633096641      56.19  <-- CONV
        O_D=      0.0031670 O_OD=      0.7159537 O_TOT=     10.3633097 <-- SPRD
 Delta: O_D= -0.1925645E-05 O_OD= -0.1269597E-04 O_TOT= -0.1462162E-04 <-- DLTA
 ------------------------------------------------------------------------------
 Cycle:   1000
  WF centre and spread    1  (  0.000000,  0.000000, -0.000005 )     0.41353992
  WF centre and spread    2  (  0.000001,  0.000000,  0.000000 )     0.34951732
  WF centre and spread    3  ( -0.000000,  0.000001,  0.000000 )     0.34966605
  WF centre and spread    4  (  0.000001, -0.000000, -0.000000 )     0.40434985
  WF centre and spread    5  ( -0.000001,  0.000000,  0.000000 )     0.34975747
  WF centre and spread    6  (  4.176803,  4.176815,  4.177937 )     1.11901100
  WF centre and spread    7  (  4.177001,  4.177002,  4.177002 )     0.37157046
  WF centre and spread    8  (  4.177002,  4.177002,  4.177002 )     0.37175894
  WF centre and spread    9  (  4.176994,  4.177000,  4.177016 )     0.61177503
  WF centre and spread   10  (  4.177008,  4.177001,  4.177002 )     0.37183785
  WF centre and spread   11  (  2.087391,  2.087431,  2.092634 )     0.97112162
  WF centre and spread   12  (  2.079206,  2.088739,  2.088969 )     0.93898002
  WF centre and spread   13  (  2.088872,  2.084178,  2.089013 )     0.91614856
  WF centre and spread   14  (  6.266633,  6.266592,  6.261634 )     0.96990214
  WF centre and spread   15  (  6.274730,  6.265281,  6.265043 )     0.93840144
  WF centre and spread   16  (  6.265135,  6.269746,  6.264998 )     0.91595007
  Sum of centres and spreads ( 45.946777, 45.946788, 45.948245 )    10.36328773

   1000    -0.219E-04     0.1831691246       10.3632877331      56.24  <-- CONV
        O_D=      0.0031640 O_OD=      0.7159347 O_TOT=     10.3632877 <-- SPRD
 Delta: O_D= -0.2938263E-05 O_OD= -0.1899281E-04 O_TOT= -0.2193108E-04 <-- DLTA
 ------------------------------------------------------------------------------

 Writing checkpoint file wandn.chk... done

 Final State
  WF centre and spread    1  (  0.000000,  0.000000, -0.000005 )     0.41353992
  WF centre and spread    2  (  0.000001,  0.000000,  0.000000 )     0.34951732
  WF centre and spread    3  ( -0.000000,  0.000001,  0.000000 )     0.34966605
  WF centre and spread    4  (  0.000001, -0.000000, -0.000000 )     0.40434985
  WF centre and spread    5  ( -0.000001,  0.000000,  0.000000 )     0.34975747
  WF centre and spread    6  (  4.176803,  4.176815,  4.177937 )     1.11901100
  WF centre and spread    7  (  4.177001,  4.177002,  4.177002 )     0.37157046
  WF centre and spread    8  (  4.177002,  4.177002,  4.177002 )     0.37175894
  WF centre and spread    9  (  4.176994,  4.177000,  4.177016 )     0.61177503
  WF centre and spread   10  (  4.177008,  4.177001,  4.177002 )     0.37183785
  WF centre and spread   11  (  2.087391,  2.087431,  2.092634 )     0.97112162
  WF centre and spread   12  (  2.079206,  2.088739,  2.088969 )     0.93898002
  WF centre and spread   13  (  2.088872,  2.084178,  2.089013 )     0.91614856
  WF centre and spread   14  (  6.266633,  6.266592,  6.261634 )     0.96990214
  WF centre and spread   15  (  6.274730,  6.265281,  6.265043 )     0.93840144
  WF centre and spread   16  (  6.265135,  6.269746,  6.264998 )     0.91595007
  Sum of centres and spreads ( 45.946777, 45.946788, 45.948245 )    10.36328773

         Spreads (Ang^2)       Omega I      =     9.644189032
        ================       Omega D      =     0.003164042
                               Omega OD     =     0.715934659
    Final Spread (Ang^2)       Omega Total  =    10.363287733
 ------------------------------------------------------------------------------
 Time for wannierise           55.358 (sec)

 Writing checkpoint file wandn.chk... done

 Time for plotting              0.000 (sec)
 Total Execution Time          60.896 (sec)

 *===========================================================================*
 |                             TIMING INFORMATION                            |
 *===========================================================================*
 |    Tag                                                Ncalls      Time (s)|
 |---------------------------------------------------------------------------|
 |kmesh: get                                        :         1         0.921|
 |overlap: allocate                                 :         1         0.000|
 |overlap: read                                     :         1         3.575|
 |dis: main                                         :         1         0.978|
 |wann: main                                        :         1        55.358|
 |plot: main                                        :         1         0.000|
 *---------------------------------------------------------------------------*

 All done: wannier90 exiting
