
             +---------------------------------------------------+
             |                                                   |
             |                   WANNIER90                       |
             |                                                   |
             +---------------------------------------------------+
             |                                                   |
             |        Welcome to the Maximally-Localized         |
             |        Generalized Wannier Functions code         |
             |            http://www.wannier.org                 |
             |                                                   |
             |                                                   |
             |  Wannier90 Developer Group:                       |
             |    Giovanni Pizzi    (EPFL)                       |
             |    Valerio Vitale    (Cambridge)                  |
             |    David Vanderbilt  (Rutgers University)         |
             |    Nicola Marzari    (EPFL)                       |
             |    Ivo Souza         (Universidad del Pais Vasco) |
             |    Arash A. Mostofi  (Imperial College London)    |
             |    Jonathan R. Yates (University of Oxford)       |
             |                                                   |
             |  For the full list of Wannier90 3.x authors,      |
             |  please check the code documentation and the      |
             |  README on the GitHub page of the code            |
             |                                                   |
             |                                                   |
             |  Please cite                                      |
             |                                                   |
             |  [ref] "An updated version of Wannier90:          |
             |        A Tool for Obtaining Maximally Localised   |
             |        Wannier Functions", A. A. Mostofi,         |
             |        J. R. Yates, G. Pizzi, Y. S. Lee,          |
             |        I. Souza, D. Vanderbilt and N. Marzari,    |
             |        Comput. Phys. Commun. 185, 2309 (2014)     |
             |        http://dx.doi.org/10.1016/j.cpc.2014.05.003|
             |                                                   |
             |  in any publications arising from the use of      |
             |  this code. For the method please cite            |
             |                                                   |
             |  [ref] "Maximally Localized Generalised Wannier   |
             |         Functions for Composite Energy Bands"     |
             |         N. Marzari and D. Vanderbilt              |
             |         Phys. Rev. B 56 12847 (1997)              |
             |                                                   |
             |  [ref] "Maximally Localized Wannier Functions     |
             |         for Entangled Energy Bands"               |
             |         I. Souza, N. Marzari and D. Vanderbilt    |
             |         Phys. Rev. B 65 035109 (2001)             |
             |                                                   |
             |                                                   |
             | Copyright (c) 1996-2019                           |
             |        The Wannier90 Developer Group and          |
             |        individual contributors                    |
             |                                                   |
             |      Release: 3.0.0       27th February 2019      |
             |                                                   |
             | This program is free software; you can            |
             | redistribute it and/or modify it under the terms  |
             | of the GNU General Public License as published by |
             | the Free Software Foundation; either version 2 of |
             | the License, or (at your option) any later version|
             |                                                   |
             | This program is distributed in the hope that it   |
             | will be useful, but WITHOUT ANY WARRANTY; without |
             | even the implied warranty of MERCHANTABILITY or   |
             | FITNESS FOR A PARTICULAR PURPOSE. See the GNU     |
             | General Public License for more details.          |
             |                                                   |
             | You should have received a copy of the GNU General|
             | Public License along with this program; if not,   |
             | write to the Free Software Foundation, Inc.,      |
             | 675 Mass Ave, Cambridge, MA 02139, USA.           |
             |                                                   |
             +---------------------------------------------------+
             |    Execution started on 11Dec2019 at 14:38:56     |
             +---------------------------------------------------+
 
 ******************************************************************************
 * -> Using CODATA 2006 constant values                                       *
 *    (http://physics.nist.gov/cuu/Constants/index.html)                      *
 * -> Using Bohr value from CODATA                                            *
 ******************************************************************************
 

 Running in serial (with serial executable)

                                    ------
                                    SYSTEM
                                    ------

                              Lattice Vectors (Ang)
                    a_1     5.042270   0.000000   0.000000
                    a_2     4.201892   2.787220   0.000000
                    a_3     4.201892   1.266918   2.482643

                   Unit Cell Volume:      34.89086  (Ang^3)

                        Reciprocal-Space Vectors (Ang^-1)
                    b_1     1.246102  -1.878570  -1.150384
                    b_2     0.000000   2.254284  -1.150384
                    b_3     0.000000   0.000000   2.530845
  
 *----------------------------------------------------------------------------*
 |   Site       Fractional Coordinate          Cartesian Coordinate (Ang)     |
 +----------------------------------------------------------------------------+
 | Ni   1   0.00000   0.00000   0.00000   |    0.00000   0.00000   0.00000    |
 | Ni   1   0.50000   0.50000   0.50000   |    6.72303   2.02707   1.24132    |
 | O    1   0.25000   0.25000   0.25000   |    3.36151   1.01353   0.62066    |
 | O    2   0.75000   0.75000   0.75000   |   10.08454   3.04060   1.86198    |
 *----------------------------------------------------------------------------*
                                ------------
                                K-POINT GRID
                                ------------
  
             Grid size = 10 x 10 x 10      Total points = 1000
  
  
 *---------------------------------- MAIN ------------------------------------*
 |  Number of Wannier Functions               :                16             |
 |  Number of Objective Wannier Functions     :                16             |
 |  Number of input Bloch states              :                30             |
 |  Output verbosity (1=low, 5=high)          :                 1             |
 |  Timing Level (1=low, 5=high)              :                 1             |
 |  Optimisation (0=memory, 3=speed)          :                 3             |
 |  Length Unit                               :               Ang             |
 |  Post-processing setup (write *.nnkp)      :                 F             |
 |  Using Gamma-only branch of algorithms     :                 F             |
 *----------------------------------------------------------------------------*
 *------------------------------- WANNIERISE ---------------------------------*
 |  Total number of iterations                :               100             |
 |  Number of CG steps before reset           :                 5             |
 |  Trial step length for line search         :             2.000             |
 |  Convergence tolerence                     :         0.100E-09             |
 |  Convergence window                        :                -1             |
 |  Iterations between writing output         :                 1             |
 |  Iterations between backing up to disk     :               100             |
 |  Write r^2_nm to file                      :                 F             |
 |  Write xyz WF centres to file              :                 F             |
 |  Write on-site energies <0n|H|0n> to file  :                 F             |
 |  Use guiding centre to control phases      :                 F             |
 |  Use phases for initial projections        :                 F             |
 *----------------------------------------------------------------------------*
 *------------------------------- DISENTANGLE --------------------------------*
 |  Using band disentanglement                :                 T             |
 |  Total number of iterations                :               200             |
 |  Mixing ratio                              :             0.500             |
 |  Convergence tolerence                     :         1.000E-10             |
 |  Convergence window                        :                 3             |
 *----------------------------------------------------------------------------*
 *-------------------------------- PLOTTING ----------------------------------*
 |  Plotting Hamiltonian in WF basis          :                 T             |
 *----------------------------------------------------------------------------*
 Time to read parameters        0.095 (sec)

 *---------------------------------- K-MESH ----------------------------------*
 +----------------------------------------------------------------------------+
 |                    Distance to Nearest-Neighbour Shells                    |
 |                    ------------------------------------                    |
 |          Shell             Distance (Ang^-1)          Multiplicity         |
 |          -----             -----------------          ------------         |
 |             1                   0.132169                      2            |
 |             2                   0.253085                      6            |
 |             3                   0.264338                      8            |
 |             4                   0.305231                      6            |
 |             5                   0.332618                      6            |
 |             6                   0.396507                      8            |
 |             7                   0.431662                     12            |
 |             8                   0.451443                     12            |
 |             9                   0.500384                      6            |
 |            10                   0.506169                     24            |
 |            11                   0.528676                      8            |
 |            12                   0.544947                     12            |
 |            13                   0.586132                     18            |
 |            14                   0.610463                      6            |
 |            15                   0.624607                      6            |
 |            16                   0.660845                     14            |
 |            17                   0.665237                     24            |
 |            18                   0.682518                     24            |
 |            19                   0.695198                     18            |
 |            20                   0.727931                     12            |
 |            21                   0.747661                     24            |
 |            22                   0.759254                     18            |
 |            23                   0.789335                     18            |
 |            24                   0.793015                     32            |
 |            25                   0.818311                     12            |
 |            26                   0.846295                     12            |
 |            27                   0.863325                     12            |
 |            28                   0.873383                     30            |
 |            29                   0.899656                     18            |
 |            30                   0.902887                     48            |
 |            31                   0.915694                     30            |
 |            32                   0.925184                     14            |
 |            33                   0.950025                     24            |
 |            34                   0.965227                     24            |
 |            35                   0.974234                      6            |
 |            36                   0.997855                     30            |
 +----------------------------------------------------------------------------+
 | The b-vectors are chosen automatically                                     |
 | The following shells are used:   1,  2                                     |
 +----------------------------------------------------------------------------+
 |                        Shell   # Nearest-Neighbours                        |
 |                        -----   --------------------                        |
 |                          1               2                                 |
 |                          2               6                                 |
 +----------------------------------------------------------------------------+
 | Completeness relation is fully satisfied [Eq. (B1), PRB 56, 12847 (1997)]  |
 +----------------------------------------------------------------------------+
 |                  b_k Vectors (Ang^-1) and Weights (Ang^2)                  |
 |                  ----------------------------------------                  |
 |            No.         b_k(x)      b_k(y)      b_k(z)        w_b           |
 |            ---        --------------------------------     --------        |
 |             1         0.124610    0.037571    0.023008    26.833742        |
 |             2        -0.124610   -0.037571   -0.023008    26.833742        |
 |             3         0.124610   -0.187857   -0.115038     5.366751        |
 |             4         0.000000    0.225428   -0.115038     5.366751        |
 |             5         0.000000    0.000000    0.253085     5.366751        |
 |             6         0.000000    0.000000   -0.253085     5.366751        |
 |             7         0.000000   -0.225428    0.115038     5.366751        |
 |             8        -0.124610    0.187857    0.115038     5.366751        |
 +----------------------------------------------------------------------------+
 |                           b_k Directions (Ang^-1)                          |
 |                           -----------------------                          |
 |            No.           x           y           z                         |
 |            ---        --------------------------------                     |
 |             1         0.124610    0.037571    0.023008                     |
 |             2         0.124610   -0.187857   -0.115038                     |
 |             3         0.000000    0.225428   -0.115038                     |
 |             4         0.000000    0.000000    0.253085                     |
 +----------------------------------------------------------------------------+
  
 Time to get kmesh              7.367 (sec)
 *============================================================================*
 |                              MEMORY ESTIMATE                               |
 |         Maximum RAM allocated during each phase of the calculation         |
 *============================================================================*
 |                        Disentanglement          160.79 Mb                  |
 |                            Wannierise:           90.99 Mb                  |
 |                          plot_wannier:           90.99 Mb                  |
 *----------------------------------------------------------------------------*
  
 Starting a new Wannier90 calculation ...


 Reading overlaps from wandn.mmn    :  Created on 11Dec2019 at 14:36:57

 Reading projections from wandn.amn :  Created on 11Dec2019 at 14:36:17

 Time to read overlaps         10.553 (sec)

 *------------------------------- DISENTANGLE --------------------------------*
 +----------------------------------------------------------------------------+
 |                              Energy  Windows                               |
 |                              ---------------                               |
 |                   Outer:   -2.86756  to   20.09100  (eV)                   |
 |                   Inner:    2.13244  to   15.09100  (eV)                   |
 +----------------------------------------------------------------------------+
   Number of target bands to extract:   16

                   Unitarised projection of Wannier functions                  
                   ------------------------------------------                  
   A_mn = <psi_m|g_n> --> S = A.A^+ --> U = S^-1/2.A
   In dis_project... done
   Using an inner window (linner = T)
   In dis_proj_froz... done

                   Extraction of optimally-connected subspace                  
                   ------------------------------------------                  
 +---------------------------------------------------------------------+<-- DIS
 |  Iter     Omega_I(i-1)      Omega_I(i)      Delta (frac.)    Time   |<-- DIS
 +---------------------------------------------------------------------+<-- DIS
       1      10.97604296      11.04289352      -6.054E-03      0.00    <-- DIS
       2      10.92880926      10.88653277       3.883E-03      0.13    <-- DIS
       3      10.89875709      10.86402125       3.197E-03      0.25    <-- DIS
       4      10.87435869      10.85356105       1.916E-03      0.38    <-- DIS
       5      10.85753450      10.84638124       1.028E-03      0.50    <-- DIS
       6      10.84638036      10.84068235       5.256E-04      0.63    <-- DIS
       7      10.83872412      10.83625145       2.282E-04      0.75    <-- DIS
       8      10.83355583      10.83288660       6.178E-05      0.88    <-- DIS
       9      10.83006953      10.83036955      -2.770E-05      1.00    <-- DIS
      10      10.82771230      10.82850213      -7.294E-05      1.13    <-- DIS
      11      10.82611162      10.82712138      -9.326E-05      1.25    <-- DIS
      12      10.82502019      10.82610046      -9.978E-05      1.38    <-- DIS
      13      10.82427372      10.82534353      -9.882E-05      1.50    <-- DIS
      14      10.82376213      10.82477944      -9.398E-05      1.63    <-- DIS
      15      10.82341086      10.82435592      -8.731E-05      1.75    <-- DIS
      16      10.82316898      10.82403479      -7.999E-05      1.88    <-- DIS
      17      10.82300149      10.82378832      -7.269E-05      2.00    <-- DIS
      18      10.82288434      10.82359638      -6.579E-05      2.13    <-- DIS
      19      10.82280097      10.82344441      -5.945E-05      2.25    <-- DIS
      20      10.82274009      10.82332188      -5.375E-05      2.38    <-- DIS
      21      10.82269398      10.82322117      -4.871E-05      2.50    <-- DIS
      22      10.82265749      10.82313678      -4.428E-05      2.63    <-- DIS
      23      10.82262718      10.82306470      -4.042E-05      2.75    <-- DIS
      24      10.82260081      10.82300205      -3.707E-05      2.88    <-- DIS
      25      10.82257696      10.82294673      -3.416E-05      3.00    <-- DIS
      26      10.82255475      10.82289720      -3.164E-05      3.13    <-- DIS
      27      10.82253366      10.82285233      -2.944E-05      3.25    <-- DIS
      28      10.82251340      10.82281131      -2.753E-05      3.38    <-- DIS
      29      10.82249385      10.82277351      -2.584E-05      3.50    <-- DIS
      30      10.82247496      10.82273847      -2.435E-05      3.63    <-- DIS
      31      10.82245673      10.82270584      -2.302E-05      3.75    <-- DIS
      32      10.82243918      10.82267535      -2.182E-05      3.88    <-- DIS
      33      10.82242235      10.82264679      -2.074E-05      4.00    <-- DIS
      34      10.82240627      10.82261997      -1.975E-05      4.13    <-- DIS
      35      10.82239097      10.82259476      -1.883E-05      4.25    <-- DIS
      36      10.82237646      10.82257104      -1.798E-05      4.38    <-- DIS
      37      10.82236274      10.82254870      -1.718E-05      4.50    <-- DIS
      38      10.82234981      10.82252766      -1.643E-05      4.63    <-- DIS
      39      10.82233765      10.82250783      -1.572E-05      4.75    <-- DIS
      40      10.82232625      10.82248913      -1.505E-05      4.88    <-- DIS
      41      10.82231557      10.82247151      -1.441E-05      5.00    <-- DIS
      42      10.82230559      10.82245489      -1.379E-05      5.13    <-- DIS
      43      10.82229628      10.82243921      -1.321E-05      5.25    <-- DIS
      44      10.82228759      10.82242444      -1.265E-05      5.38    <-- DIS
      45      10.82227949      10.82241050      -1.211E-05      5.50    <-- DIS
      46      10.82227194      10.82239735      -1.159E-05      5.63    <-- DIS
      47      10.82226492      10.82238496      -1.109E-05      5.75    <-- DIS
      48      10.82225838      10.82237326      -1.062E-05      5.88    <-- DIS
      49      10.82225229      10.82236223      -1.016E-05      6.00    <-- DIS
      50      10.82224662      10.82235183      -9.722E-06      6.13    <-- DIS
      51      10.82224134      10.82234202      -9.303E-06      6.25    <-- DIS
      52      10.82223642      10.82233276      -8.902E-06      6.38    <-- DIS
      53      10.82223184      10.82232403      -8.519E-06      6.50    <-- DIS
      54      10.82222757      10.82231579      -8.152E-06      6.63    <-- DIS
      55      10.82222359      10.82230802      -7.802E-06      6.75    <-- DIS
      56      10.82221988      10.82230069      -7.467E-06      6.88    <-- DIS
      57      10.82221642      10.82229377      -7.148E-06      7.00    <-- DIS
      58      10.82221319      10.82228725      -6.844E-06      7.13    <-- DIS
      59      10.82221017      10.82228109      -6.553E-06      7.25    <-- DIS
      60      10.82220736      10.82227529      -6.276E-06      7.38    <-- DIS
      61      10.82220474      10.82226981      -6.013E-06      7.50    <-- DIS
      62      10.82220229      10.82226464      -5.761E-06      7.63    <-- DIS
      63      10.82220001      10.82225977      -5.522E-06      7.75    <-- DIS
      64      10.82219788      10.82225517      -5.294E-06      7.88    <-- DIS
      65      10.82219589      10.82225084      -5.077E-06      8.00    <-- DIS
      66      10.82219404      10.82224675      -4.870E-06      8.13    <-- DIS
      67      10.82219232      10.82224289      -4.673E-06      8.25    <-- DIS
      68      10.82219071      10.82223925      -4.485E-06      8.38    <-- DIS
      69      10.82218921      10.82223582      -4.307E-06      8.50    <-- DIS
      70      10.82218782      10.82223259      -4.136E-06      8.63    <-- DIS
      71      10.82218653      10.82222953      -3.974E-06      8.75    <-- DIS
      72      10.82218533      10.82222666      -3.819E-06      8.88    <-- DIS
      73      10.82218421      10.82222395      -3.671E-06      9.00    <-- DIS
      74      10.82218318      10.82222139      -3.531E-06      9.12    <-- DIS
      75      10.82218223      10.82221898      -3.396E-06      9.25    <-- DIS
      76      10.82218134      10.82221671      -3.268E-06      9.38    <-- DIS
      77      10.82218053      10.82221457      -3.145E-06      9.50    <-- DIS
      78      10.82217977      10.82221255      -3.028E-06      9.62    <-- DIS
      79      10.82217908      10.82221065      -2.917E-06      9.74    <-- DIS
      80      10.82217845      10.82220885      -2.810E-06      9.86    <-- DIS
      81      10.82217786      10.82220716      -2.707E-06      9.98    <-- DIS
      82      10.82217733      10.82220557      -2.610E-06     10.10    <-- DIS
      83      10.82217685      10.82220407      -2.516E-06     10.22    <-- DIS
      84      10.82217640      10.82220266      -2.426E-06     10.33    <-- DIS
      85      10.82217600      10.82220133      -2.340E-06     10.45    <-- DIS
      86      10.82217564      10.82220008      -2.258E-06     10.57    <-- DIS
      87      10.82217531      10.82219889      -2.179E-06     10.69    <-- DIS
      88      10.82217502      10.82219778      -2.103E-06     10.81    <-- DIS
      89      10.82217476      10.82219673      -2.030E-06     10.93    <-- DIS
      90      10.82217453      10.82219575      -1.961E-06     11.05    <-- DIS
      91      10.82217433      10.82219482      -1.894E-06     11.17    <-- DIS
      92      10.82217415      10.82219394      -1.829E-06     11.29    <-- DIS
      93      10.82217399      10.82219312      -1.767E-06     11.40    <-- DIS
      94      10.82217386      10.82219234      -1.708E-06     11.52    <-- DIS
      95      10.82217375      10.82219161      -1.650E-06     11.64    <-- DIS
      96      10.82217366      10.82219092      -1.595E-06     11.76    <-- DIS
      97      10.82217359      10.82219027      -1.542E-06     11.88    <-- DIS
      98      10.82217353      10.82218966      -1.491E-06     12.00    <-- DIS
      99      10.82217349      10.82218909      -1.442E-06     12.12    <-- DIS
     100      10.82217346      10.82218855      -1.394E-06     12.24    <-- DIS
     101      10.82217345      10.82218804      -1.349E-06     12.36    <-- DIS
     102      10.82217344      10.82218756      -1.305E-06     12.48    <-- DIS
     103      10.82217345      10.82218711      -1.262E-06     12.60    <-- DIS
     104      10.82217347      10.82218669      -1.221E-06     12.71    <-- DIS
     105      10.82217350      10.82218629      -1.182E-06     12.83    <-- DIS
     106      10.82217353      10.82218591      -1.143E-06     12.95    <-- DIS
     107      10.82217358      10.82218555      -1.107E-06     13.07    <-- DIS
     108      10.82217363      10.82218522      -1.071E-06     13.19    <-- DIS
     109      10.82217369      10.82218491      -1.037E-06     13.31    <-- DIS
     110      10.82217375      10.82218461      -1.004E-06     13.43    <-- DIS
     111      10.82217382      10.82218433      -9.715E-07     13.55    <-- DIS
     112      10.82217389      10.82218407      -9.406E-07     13.67    <-- DIS
     113      10.82217397      10.82218382      -9.107E-07     13.78    <-- DIS
     114      10.82217405      10.82218359      -8.818E-07     13.90    <-- DIS
     115      10.82217413      10.82218337      -8.538E-07     14.02    <-- DIS
     116      10.82217422      10.82218317      -8.268E-07     14.14    <-- DIS
     117      10.82217431      10.82218297      -8.007E-07     14.26    <-- DIS
     118      10.82217440      10.82218279      -7.755E-07     14.39    <-- DIS
     119      10.82217449      10.82218262      -7.510E-07     14.50    <-- DIS
     120      10.82217458      10.82218246      -7.274E-07     14.62    <-- DIS
     121      10.82217468      10.82218230      -7.046E-07     14.74    <-- DIS
     122      10.82217478      10.82218216      -6.825E-07     14.86    <-- DIS
     123      10.82217487      10.82218203      -6.611E-07     14.98    <-- DIS
     124      10.82217497      10.82218190      -6.404E-07     15.10    <-- DIS
     125      10.82217506      10.82218178      -6.203E-07     15.22    <-- DIS
     126      10.82217516      10.82218166      -6.009E-07     15.33    <-- DIS
     127      10.82217526      10.82218156      -5.822E-07     15.45    <-- DIS
     128      10.82217535      10.82218146      -5.640E-07     15.57    <-- DIS
     129      10.82217545      10.82218136      -5.464E-07     15.69    <-- DIS
     130      10.82217554      10.82218127      -5.294E-07     15.81    <-- DIS
     131      10.82217564      10.82218119      -5.129E-07     15.93    <-- DIS
     132      10.82217573      10.82218111      -4.969E-07     16.05    <-- DIS
     133      10.82217582      10.82218103      -4.815E-07     16.16    <-- DIS
     134      10.82217591      10.82218096      -4.665E-07     16.28    <-- DIS
     135      10.82217600      10.82218090      -4.520E-07     16.40    <-- DIS
     136      10.82217609      10.82218083      -4.380E-07     16.52    <-- DIS
     137      10.82217618      10.82218077      -4.244E-07     16.64    <-- DIS
     138      10.82217626      10.82218071      -4.112E-07     16.76    <-- DIS
     139      10.82217635      10.82218066      -3.985E-07     16.88    <-- DIS
     140      10.82217643      10.82218061      -3.861E-07     17.00    <-- DIS
     141      10.82217651      10.82218056      -3.742E-07     17.11    <-- DIS
     142      10.82217659      10.82218052      -3.626E-07     17.23    <-- DIS
     143      10.82217667      10.82218047      -3.513E-07     17.35    <-- DIS
     144      10.82217675      10.82218043      -3.404E-07     17.47    <-- DIS
     145      10.82217682      10.82218039      -3.299E-07     17.59    <-- DIS
     146      10.82217690      10.82218035      -3.197E-07     17.71    <-- DIS
     147      10.82217697      10.82218032      -3.098E-07     17.83    <-- DIS
     148      10.82217704      10.82218029      -3.002E-07     17.94    <-- DIS
     149      10.82217710      10.82218025      -2.909E-07     18.06    <-- DIS
     150      10.82217717      10.82218022      -2.819E-07     18.18    <-- DIS
     151      10.82217724      10.82218019      -2.732E-07     18.30    <-- DIS
     152      10.82217730      10.82218016      -2.647E-07     18.42    <-- DIS
     153      10.82217736      10.82218014      -2.565E-07     18.54    <-- DIS
     154      10.82217742      10.82218011      -2.486E-07     18.66    <-- DIS
     155      10.82217748      10.82218009      -2.409E-07     18.77    <-- DIS
     156      10.82217753      10.82218006      -2.334E-07     18.89    <-- DIS
     157      10.82217759      10.82218004      -2.262E-07     19.01    <-- DIS
     158      10.82217764      10.82218001      -2.192E-07     19.13    <-- DIS
     159      10.82217769      10.82217999      -2.124E-07     19.25    <-- DIS
     160      10.82217774      10.82217997      -2.058E-07     19.37    <-- DIS
     161      10.82217779      10.82217995      -1.994E-07     19.49    <-- DIS
     162      10.82217784      10.82217993      -1.933E-07     19.60    <-- DIS
     163      10.82217788      10.82217991      -1.873E-07     19.72    <-- DIS
     164      10.82217793      10.82217989      -1.815E-07     19.84    <-- DIS
     165      10.82217797      10.82217987      -1.758E-07     19.96    <-- DIS
     166      10.82217801      10.82217985      -1.704E-07     20.08    <-- DIS
     167      10.82217805      10.82217983      -1.651E-07     20.20    <-- DIS
     168      10.82217808      10.82217981      -1.599E-07     20.32    <-- DIS
     169      10.82217812      10.82217980      -1.550E-07     20.44    <-- DIS
     170      10.82217815      10.82217978      -1.501E-07     20.56    <-- DIS
     171      10.82217818      10.82217976      -1.454E-07     20.67    <-- DIS
     172      10.82217822      10.82217974      -1.409E-07     20.79    <-- DIS
     173      10.82217824      10.82217972      -1.365E-07     20.91    <-- DIS
     174      10.82217827      10.82217970      -1.322E-07     21.03    <-- DIS
     175      10.82217830      10.82217969      -1.281E-07     21.15    <-- DIS
     176      10.82217832      10.82217967      -1.241E-07     21.27    <-- DIS
     177      10.82217835      10.82217965      -1.202E-07     21.39    <-- DIS
     178      10.82217837      10.82217963      -1.164E-07     21.50    <-- DIS
     179      10.82217839      10.82217961      -1.128E-07     21.62    <-- DIS
     180      10.82217841      10.82217959      -1.092E-07     21.74    <-- DIS
     181      10.82217843      10.82217957      -1.057E-07     21.86    <-- DIS
     182      10.82217844      10.82217955      -1.024E-07     21.98    <-- DIS
     183      10.82217846      10.82217953      -9.916E-08     22.10    <-- DIS
     184      10.82217847      10.82217951      -9.601E-08     22.22    <-- DIS
     185      10.82217848      10.82217949      -9.295E-08     22.33    <-- DIS
     186      10.82217849      10.82217946      -8.999E-08     22.45    <-- DIS
     187      10.82217850      10.82217944      -8.711E-08     22.57    <-- DIS
     188      10.82217851      10.82217942      -8.431E-08     22.69    <-- DIS
     189      10.82217851      10.82217940      -8.160E-08     22.81    <-- DIS
     190      10.82217852      10.82217937      -7.896E-08     22.93    <-- DIS
     191      10.82217852      10.82217935      -7.640E-08     23.05    <-- DIS
     192      10.82217852      10.82217932      -7.392E-08     23.17    <-- DIS
     193      10.82217852      10.82217930      -7.151E-08     23.28    <-- DIS
     194      10.82217852      10.82217927      -6.916E-08     23.40    <-- DIS
     195      10.82217852      10.82217924      -6.688E-08     23.52    <-- DIS
     196      10.82217851      10.82217921      -6.467E-08     23.64    <-- DIS
     197      10.82217851      10.82217918      -6.252E-08     23.76    <-- DIS
     198      10.82217850      10.82217915      -6.043E-08     23.88    <-- DIS
     199      10.82217849      10.82217912      -5.839E-08     24.00    <-- DIS
     200      10.82217848      10.82217909      -5.642E-08     24.11    <-- DIS

     <<< Warning: Maximum number of disentanglement iterations reached >>>
          <<< Disentanglement convergence criteria not satisfied >>>

        Final Omega_I    10.82217909 (Ang^2)

 +----------------------------------------------------------------------------+

 Time to disentangle bands     25.068 (sec)

 Writing checkpoint file wandn.chk... done


 *------------------------------- WANNIERISE ---------------------------------*
 +--------------------------------------------------------------------+<-- CONV
 | Iter  Delta Spread     RMS Gradient      Spread (Ang^2)      Time  |<-- CONV
 +--------------------------------------------------------------------+<-- CONV

 ------------------------------------------------------------------------------
 Initial State
  WF centre and spread    1  (  0.002605,  0.000143, -0.000545 )     1.30366705
  WF centre and spread    2  (  0.000913, -0.000076, -0.000332 )     1.02557041
  WF centre and spread    3  (  0.000297,  0.000197, -0.000099 )     0.67755840
  WF centre and spread    4  (  0.000302,  0.000229, -0.000090 )     0.70695655
  WF centre and spread    5  (  0.000271,  0.000253, -0.000006 )     0.87599862
  WF centre and spread    6  (  6.723080,  2.027074,  1.241328 )     0.41921856
  WF centre and spread    7  (  6.723043,  2.027070,  1.241326 )     0.39641776
  WF centre and spread    8  (  6.723035,  2.027069,  1.241320 )     0.38139829
  WF centre and spread    9  (  6.723037,  2.027069,  1.241319 )     0.38507023
  WF centre and spread   10  (  6.723029,  2.027068,  1.241322 )     0.40154338
  WF centre and spread   11  (  3.361599,  1.013295,  0.618304 )     1.37629616
  WF centre and spread   12  (  3.368589,  1.014004,  0.620842 )     1.01454611
  WF centre and spread   13  (  3.358506,  1.014125,  0.621415 )     1.16325785
  WF centre and spread   14  ( 10.087287,  3.041133,  1.864202 )     1.37738829
  WF centre and spread   15  ( 10.077515,  3.040127,  1.861812 )     1.01362398
  WF centre and spread   16  ( 10.087872,  3.040299,  1.861136 )     1.16039269
  Sum of centres and spreads ( 73.960980, 22.299078, 13.653254 )    13.67890433

      0     0.137E+02     0.0000000000       13.6788699676      24.68  <-- CONV
        O_D=      0.0185208 O_OD=      2.8381701 O_TOT=     13.6788700 <-- SPRD
 ------------------------------------------------------------------------------
 Cycle:      1
  WF centre and spread    1  ( -0.007560, -0.000276, -0.001376 )     1.52771048
  WF centre and spread    2  (  0.000017,  0.000075, -0.000252 )     1.05845094
  WF centre and spread    3  (  0.000246,  0.000190, -0.000069 )     0.64160041
  WF centre and spread    4  (  0.000273,  0.000224, -0.000064 )     0.67704953
  WF centre and spread    5  (  0.000441,  0.000382, -0.000065 )     0.90142980
  WF centre and spread    6  (  6.723042,  2.027071,  1.241324 )     0.40701174
  WF centre and spread    7  (  6.723031,  2.027069,  1.241323 )     0.39143863
  WF centre and spread    8  (  6.723032,  2.027068,  1.241320 )     0.37746000
  WF centre and spread    9  (  6.723032,  2.027068,  1.241320 )     0.38075241
  WF centre and spread   10  (  6.723030,  2.027067,  1.241321 )     0.39818740
  WF centre and spread   11  (  3.359282,  1.013059,  0.618447 )     1.29889778
  WF centre and spread   12  (  3.368669,  1.013985,  0.620849 )     0.99969989
  WF centre and spread   13  (  3.358475,  1.013695,  0.621572 )     1.09296888
  WF centre and spread   14  ( 10.086294,  3.041149,  1.863994 )     1.29575373
  WF centre and spread   15  ( 10.077417,  3.040142,  1.861797 )     0.99998466
  WF centre and spread   16  ( 10.087824,  3.040657,  1.861004 )     1.09202986
  Sum of centres and spreads ( 73.946545, 22.298627, 13.652442 )    13.54042613

      1    -0.138E+00     0.2906646963       13.5403917672      25.14  <-- CONV
        O_D=      0.1337474 O_OD=      2.5844653 O_TOT=     13.5403918 <-- SPRD
 Delta: O_D=  0.1152266E+00 O_OD= -0.2537048E+00 O_TOT= -0.1384782E+00 <-- DLTA
 ------------------------------------------------------------------------------
 Cycle:      2
  WF centre and spread    1  (  0.000217, -0.000391, -0.001120 )     1.42369704
  WF centre and spread    2  (  0.000936, -0.000033, -0.000429 )     1.06179510
  WF centre and spread    3  (  0.000322,  0.000244, -0.000123 )     0.64056651
  WF centre and spread    4  (  0.000339,  0.000280, -0.000113 )     0.67597543
  WF centre and spread    5  (  0.000501,  0.000437, -0.000076 )     0.90276629
  WF centre and spread    6  (  6.723055,  2.027072,  1.241326 )     0.40685258
  WF centre and spread    7  (  6.723035,  2.027069,  1.241324 )     0.39135554
  WF centre and spread    8  (  6.723033,  2.027068,  1.241320 )     0.37736465
  WF centre and spread    9  (  6.723033,  2.027068,  1.241320 )     0.38065887
  WF centre and spread   10  (  6.723030,  2.027067,  1.241321 )     0.39808618
  WF centre and spread   11  (  3.360152,  1.013177,  0.618445 )     1.29495112
  WF centre and spread   12  (  3.368716,  1.013984,  0.620850 )     0.99895369
  WF centre and spread   13  (  3.358490,  1.013711,  0.621554 )     1.09039515
  WF centre and spread   14  ( 10.087120,  3.041250,  1.863914 )     1.29182028
  WF centre and spread   15  ( 10.077436,  3.040142,  1.861799 )     0.99900334
  WF centre and spread   16  ( 10.087840,  3.040687,  1.860999 )     1.08928405
  Sum of centres and spreads ( 73.957254, 22.298831, 13.652310 )    13.42352584

      2    -0.117E+00     0.9948850986       13.4234914788      25.58  <-- CONV
        O_D=      0.0277800 O_OD=      2.5735324 O_TOT=     13.4234915 <-- SPRD
 Delta: O_D= -0.1059674E+00 O_OD= -0.1093293E-01 O_TOT= -0.1169003E+00 <-- DLTA
 ------------------------------------------------------------------------------
 Cycle:      3
  WF centre and spread    1  (  0.005559,  0.000441, -0.000082 )     1.41619482
  WF centre and spread    2  (  0.001306, -0.000043, -0.000364 )     1.06286200
  WF centre and spread    3  (  0.000345,  0.000245, -0.000119 )     0.64017117
  WF centre and spread    4  (  0.000354,  0.000283, -0.000111 )     0.67558127
  WF centre and spread    5  (  0.000509,  0.000443, -0.000075 )     0.90334138
  WF centre and spread    6  (  6.723058,  2.027072,  1.241327 )     0.40677928
  WF centre and spread    7  (  6.723036,  2.027069,  1.241324 )     0.39131765
  WF centre and spread    8  (  6.723034,  2.027068,  1.241319 )     0.37733169
  WF centre and spread    9  (  6.723034,  2.027068,  1.241320 )     0.38062784
  WF centre and spread   10  (  6.723030,  2.027067,  1.241321 )     0.39805150
  WF centre and spread   11  (  3.360309,  1.013180,  0.618473 )     1.29378533
  WF centre and spread   12  (  3.368735,  1.013985,  0.620850 )     0.99865578
  WF centre and spread   13  (  3.358494,  1.013709,  0.621551 )     1.08944176
  WF centre and spread   14  ( 10.087283,  3.041251,  1.863922 )     1.29035375
  WF centre and spread   15  ( 10.077444,  3.040142,  1.861800 )     0.99868547
  WF centre and spread   16  ( 10.087843,  3.040690,  1.861002 )     1.08841239
  Sum of centres and spreads ( 73.963372, 22.299671, 13.653457 )    13.41159307

      3    -0.119E-01     0.5657794006       13.4115587039      26.03  <-- CONV
        O_D=      0.0200774 O_OD=      2.5693022 O_TOT=     13.4115587 <-- SPRD
 Delta: O_D= -0.7702617E-02 O_OD= -0.4230158E-02 O_TOT= -0.1193277E-01 <-- DLTA
 ------------------------------------------------------------------------------
 Cycle:      4
  WF centre and spread    1  (  0.001491, -0.000429, -0.000960 )     1.45202760
  WF centre and spread    2  (  0.001214, -0.000032, -0.000425 )     1.06291804
  WF centre and spread    3  (  0.000338,  0.000249, -0.000121 )     0.63651402
  WF centre and spread    4  (  0.000354,  0.000289, -0.000112 )     0.67226758
  WF centre and spread    5  (  0.000597,  0.000504, -0.000070 )     0.90681438
  WF centre and spread    6  (  6.723056,  2.027072,  1.241326 )     0.40622972
  WF centre and spread    7  (  6.723035,  2.027069,  1.241324 )     0.39106136
  WF centre and spread    8  (  6.723033,  2.027068,  1.241320 )     0.37713228
  WF centre and spread    9  (  6.723033,  2.027068,  1.241320 )     0.38042661
  WF centre and spread   10  (  6.723030,  2.027067,  1.241321 )     0.39785989
  WF centre and spread   11  (  3.360320,  1.013199,  0.618494 )     1.28386058
  WF centre and spread   12  (  3.368762,  1.013983,  0.620846 )     0.99689637
  WF centre and spread   13  (  3.358491,  1.013702,  0.621540 )     1.08427776
  WF centre and spread   14  ( 10.087343,  3.041257,  1.863847 )     1.27992519
  WF centre and spread   15  ( 10.077407,  3.040143,  1.861803 )     0.99692532
  WF centre and spread   16  ( 10.087838,  3.040706,  1.861020 )     1.08334710
  Sum of centres and spreads ( 73.959341, 22.298915, 13.652472 )    13.40848379

      4    -0.311E-02     0.2898924557       13.4084494285      26.48  <-- CONV
        O_D=      0.0460365 O_OD=      2.5402338 O_TOT=     13.4084494 <-- SPRD
 Delta: O_D=  0.2595910E-01 O_OD= -0.2906837E-01 O_TOT= -0.3109275E-02 <-- DLTA
 ------------------------------------------------------------------------------
 Cycle:      5
  WF centre and spread    1  (  0.004786,  0.000332, -0.000263 )     1.42244387
  WF centre and spread    2  (  0.001304, -0.000032, -0.000395 )     1.06405525
  WF centre and spread    3  (  0.000343,  0.000247, -0.000118 )     0.63664050
  WF centre and spread    4  (  0.000356,  0.000287, -0.000109 )     0.67235162
  WF centre and spread    5  (  0.000595,  0.000503, -0.000070 )     0.90704502
  WF centre and spread    6  (  6.723057,  2.027072,  1.241326 )     0.40623050
  WF centre and spread    7  (  6.723035,  2.027069,  1.241324 )     0.39105732
  WF centre and spread    8  (  6.723034,  2.027068,  1.241320 )     0.37712903
  WF centre and spread    9  (  6.723034,  2.027068,  1.241320 )     0.38042517
  WF centre and spread   10  (  6.723030,  2.027067,  1.241321 )     0.39785335
  WF centre and spread   11  (  3.360337,  1.013194,  0.618504 )     1.28408259
  WF centre and spread   12  (  3.368767,  1.013984,  0.620846 )     0.99686741
  WF centre and spread   13  (  3.358492,  1.013700,  0.621540 )     1.08412299
  WF centre and spread   14  ( 10.087366,  3.041255,  1.863853 )     1.28008220
  WF centre and spread   15  ( 10.077408,  3.040143,  1.861803 )     0.99689813
  WF centre and spread   16  ( 10.087838,  3.040706,  1.861020 )     1.08322172
  Sum of centres and spreads ( 73.962784, 22.299664, 13.653222 )    13.38050666

      5    -0.280E-01     1.3157299854       13.3804722943      26.93  <-- CONV
        O_D=      0.0174299 O_OD=      2.5408634 O_TOT=     13.3804723 <-- SPRD
 Delta: O_D= -0.2860666E-01 O_OD=  0.6295278E-03 O_TOT= -0.2797713E-01 <-- DLTA
 ------------------------------------------------------------------------------
 Cycle:      6
  WF centre and spread    1  (  0.004555,  0.000360, -0.000273 )     1.42449192
  WF centre and spread    2  (  0.001269, -0.000025, -0.000393 )     1.06400454
  WF centre and spread    3  (  0.000339,  0.000246, -0.000116 )     0.63606754
  WF centre and spread    4  (  0.000353,  0.000285, -0.000107 )     0.67183300
  WF centre and spread    5  (  0.000599,  0.000507, -0.000069 )     0.90766820
  WF centre and spread    6  (  6.723056,  2.027072,  1.241326 )     0.40614878
  WF centre and spread    7  (  6.723035,  2.027069,  1.241324 )     0.39101950
  WF centre and spread    8  (  6.723034,  2.027068,  1.241320 )     0.37710093
  WF centre and spread    9  (  6.723034,  2.027068,  1.241320 )     0.38039616
  WF centre and spread   10  (  6.723030,  2.027067,  1.241321 )     0.39782669
  WF centre and spread   11  (  3.360310,  1.013192,  0.618509 )     1.28267571
  WF centre and spread   12  (  3.368771,  1.013984,  0.620846 )     0.99665484
  WF centre and spread   13  (  3.358491,  1.013697,  0.621539 )     1.08343467
  WF centre and spread   14  ( 10.087345,  3.041252,  1.863846 )     1.27859497
  WF centre and spread   15  ( 10.077402,  3.040143,  1.861804 )     0.99669329
  WF centre and spread   16  ( 10.087836,  3.040707,  1.861023 )     1.08255840
  Sum of centres and spreads ( 73.962459, 22.299692, 13.653219 )    13.37716914

      6    -0.334E-02     0.2593003630       13.3771347803      27.38  <-- CONV
        O_D=      0.0177247 O_OD=      2.5372310 O_TOT=     13.3771348 <-- SPRD
 Delta: O_D=  0.2948737E-03 O_OD= -0.3632388E-02 O_TOT= -0.3337514E-02 <-- DLTA
 ------------------------------------------------------------------------------
 Cycle:      7
  WF centre and spread    1  ( -0.001939, -0.000420, -0.001317 )     1.47679968
  WF centre and spread    2  (  0.000887,  0.000029, -0.000397 )     1.06404018
  WF centre and spread    3  (  0.000304,  0.000231, -0.000103 )     0.63127913
  WF centre and spread    4  (  0.000323,  0.000270, -0.000094 )     0.66750609
  WF centre and spread    5  (  0.000639,  0.000542, -0.000063 )     0.91310429
  WF centre and spread    6  (  6.723050,  2.027072,  1.241325 )     0.40546825
  WF centre and spread    7  (  6.723033,  2.027069,  1.241324 )     0.39070301
  WF centre and spread    8  (  6.723033,  2.027068,  1.241320 )     0.37687154
  WF centre and spread    9  (  6.723033,  2.027068,  1.241320 )     0.38015676
  WF centre and spread   10  (  6.723030,  2.027067,  1.241321 )     0.39760838
  WF centre and spread   11  (  3.360074,  1.013176,  0.618549 )     1.27098297
  WF centre and spread   12  (  3.368801,  1.013982,  0.620842 )     0.99499208
  WF centre and spread   13  (  3.358483,  1.013677,  0.621529 )     1.07786456
  WF centre and spread   14  ( 10.087150,  3.041226,  1.863784 )     1.26627924
  WF centre and spread   15  ( 10.077345,  3.040145,  1.861807 )     0.99509101
  WF centre and spread   16  ( 10.087819,  3.040719,  1.861047 )     1.07717947
  Sum of centres and spreads ( 73.955064, 22.298920, 13.652193 )    13.38592664

      7     0.876E-02     0.3569442748       13.3858922803      27.82  <-- CONV
        O_D=      0.0556633 O_OD=      2.5080499 O_TOT=     13.3858923 <-- SPRD
 Delta: O_D=  0.3793855E-01 O_OD= -0.2918105E-01 O_TOT=  0.8757500E-02 <-- DLTA
 ------------------------------------------------------------------------------
 Cycle:      8
  WF centre and spread    1  (  0.001251,  0.000370, -0.000688 )     1.43425801
  WF centre and spread    2  (  0.000938,  0.000026, -0.000385 )     1.06508143
  WF centre and spread    3  (  0.000307,  0.000230, -0.000102 )     0.63147073
  WF centre and spread    4  (  0.000324,  0.000269, -0.000093 )     0.66765278
  WF centre and spread    5  (  0.000638,  0.000542, -0.000063 )     0.91322656
  WF centre and spread    6  (  6.723050,  2.027072,  1.241325 )     0.40548049
  WF centre and spread    7  (  6.723033,  2.027069,  1.241324 )     0.39070485
  WF centre and spread    8  (  6.723033,  2.027068,  1.241320 )     0.37687327
  WF centre and spread    9  (  6.723033,  2.027068,  1.241320 )     0.38016008
  WF centre and spread   10  (  6.723030,  2.027067,  1.241321 )     0.39760691
  WF centre and spread   11  (  3.360087,  1.013173,  0.618553 )     1.27131595
  WF centre and spread   12  (  3.368804,  1.013982,  0.620842 )     0.99500559
  WF centre and spread   13  (  3.358484,  1.013676,  0.621529 )     1.07785055
  WF centre and spread   14  ( 10.087166,  3.041227,  1.863786 )     1.26661162
  WF centre and spread   15  ( 10.077346,  3.040145,  1.861807 )     0.99510315
  WF centre and spread   16  ( 10.087819,  3.040719,  1.861047 )     1.07717377
  Sum of centres and spreads ( 73.958342, 22.299703, 13.652843 )    13.34557574

      8    -0.404E-01     2.4314077459       13.3455413711      28.27  <-- CONV
        O_D=      0.0141979 O_OD=      2.5091643 O_TOT=     13.3455414 <-- SPRD
 Delta: O_D= -0.4146534E-01 O_OD=  0.1114432E-02 O_TOT= -0.4035091E-01 <-- DLTA
 ------------------------------------------------------------------------------
 Cycle:      9
  WF centre and spread    1  (  0.001898,  0.000479, -0.000563 )     1.43264541
  WF centre and spread    2  (  0.000966,  0.000024, -0.000380 )     1.06505515
  WF centre and spread    3  (  0.000308,  0.000230, -0.000102 )     0.63135719
  WF centre and spread    4  (  0.000325,  0.000269, -0.000093 )     0.66754676
  WF centre and spread    5  (  0.000638,  0.000542, -0.000063 )     0.91337276
  WF centre and spread    6  (  6.723050,  2.027072,  1.241325 )     0.40546294
  WF centre and spread    7  (  6.723034,  2.027069,  1.241324 )     0.39069673
  WF centre and spread    8  (  6.723033,  2.027068,  1.241320 )     0.37686803
  WF centre and spread    9  (  6.723033,  2.027068,  1.241320 )     0.38015468
  WF centre and spread   10  (  6.723030,  2.027067,  1.241321 )     0.39760200
  WF centre and spread   11  (  3.360097,  1.013172,  0.618555 )     1.27095898
  WF centre and spread   12  (  3.368806,  1.013982,  0.620842 )     0.99497540
  WF centre and spread   13  (  3.358484,  1.013676,  0.621528 )     1.07773022
  WF centre and spread   14  ( 10.087175,  3.041226,  1.863786 )     1.26625746
  WF centre and spread   15  ( 10.077346,  3.040145,  1.861807 )     0.99507033
  WF centre and spread   16  ( 10.087819,  3.040719,  1.861048 )     1.07705801
  Sum of centres and spreads ( 73.959040, 22.299808, 13.652975 )    13.34281203

      9    -0.276E-02     0.4713732092       13.3427776670      28.72  <-- CONV
        O_D=      0.0122433 O_OD=      2.5083553 O_TOT=     13.3427777 <-- SPRD
 Delta: O_D= -0.1954635E-02 O_OD= -0.8090687E-03 O_TOT= -0.2763704E-02 <-- DLTA
 ------------------------------------------------------------------------------
 Cycle:     10
  WF centre and spread    1  (  0.007729,  0.001382,  0.000492 )     1.44959982
  WF centre and spread    2  (  0.001173, -0.000010, -0.000371 )     1.06293496
  WF centre and spread    3  (  0.000313,  0.000230, -0.000103 )     0.62927305
  WF centre and spread    4  (  0.000325,  0.000269, -0.000095 )     0.66565281
  WF centre and spread    5  (  0.000642,  0.000552, -0.000062 )     0.91545497
  WF centre and spread    6  (  6.723051,  2.027071,  1.241326 )     0.40517095
  WF centre and spread    7  (  6.723034,  2.027069,  1.241324 )     0.39056772
  WF centre and spread    8  (  6.723033,  2.027068,  1.241320 )     0.37678375
  WF centre and spread    9  (  6.723033,  2.027068,  1.241320 )     0.38006510
  WF centre and spread   10  (  6.723030,  2.027067,  1.241321 )     0.39752792
  WF centre and spread   11  (  3.360184,  1.013170,  0.618573 )     1.26487639
  WF centre and spread   12  (  3.368828,  1.013981,  0.620841 )     0.99448364
  WF centre and spread   13  (  3.358484,  1.013668,  0.621523 )     1.07590002
  WF centre and spread   14  ( 10.087244,  3.041217,  1.863769 )     1.26024898
  WF centre and spread   15  ( 10.077338,  3.040146,  1.861809 )     0.99454430
  WF centre and spread   16  ( 10.087814,  3.040724,  1.861053 )     1.07526044
  Sum of centres and spreads ( 73.965254, 22.300672, 13.654038 )    13.33834481

     10    -0.447E-02     0.2560383757       13.3383104474      29.17  <-- CONV
        O_D=      0.0223495 O_OD=      2.4937818 O_TOT=     13.3383104 <-- SPRD
 Delta: O_D=  0.1010623E-01 O_OD= -0.1457345E-01 O_TOT= -0.4467220E-02 <-- DLTA
 ------------------------------------------------------------------------------
 Cycle:     11
  WF centre and spread    1  (  0.004098,  0.000535, -0.000232 )     1.44235724
  WF centre and spread    2  (  0.001078, -0.000010, -0.000396 )     1.06307399
  WF centre and spread    3  (  0.000308,  0.000230, -0.000105 )     0.62924788
  WF centre and spread    4  (  0.000322,  0.000269, -0.000096 )     0.66562455
  WF centre and spread    5  (  0.000644,  0.000554, -0.000062 )     0.91553533
  WF centre and spread    6  (  6.723051,  2.027071,  1.241325 )     0.40516625
  WF centre and spread    7  (  6.723034,  2.027069,  1.241324 )     0.39056498
  WF centre and spread    8  (  6.723033,  2.027068,  1.241320 )     0.37678172
  WF centre and spread    9  (  6.723033,  2.027068,  1.241320 )     0.38006316
  WF centre and spread   10  (  6.723030,  2.027067,  1.241321 )     0.39752551
  WF centre and spread   11  (  3.360157,  1.013171,  0.618567 )     1.26480451
  WF centre and spread   12  (  3.368825,  1.013981,  0.620841 )     0.99447155
  WF centre and spread   13  (  3.358483,  1.013669,  0.621523 )     1.07585561
  WF centre and spread   14  ( 10.087218,  3.041219,  1.863762 )     1.26019026
  WF centre and spread   15  ( 10.077333,  3.040146,  1.861808 )     0.99453451
  WF centre and spread   16  ( 10.087813,  3.040724,  1.861054 )     1.07520102
  Sum of centres and spreads ( 73.961460, 22.299831, 13.653272 )    13.33099808

     11    -0.735E-02     1.1146549749       13.3309637156      29.61  <-- CONV
        O_D=      0.0151101 O_OD=      2.4936745 O_TOT=     13.3309637 <-- SPRD
 Delta: O_D= -0.7239440E-02 O_OD= -0.1072914E-03 O_TOT= -0.7346732E-02 <-- DLTA
 ------------------------------------------------------------------------------
 Cycle:     12
  WF centre and spread    1  (  0.004233,  0.000603, -0.000206 )     1.44111421
  WF centre and spread    2  (  0.001066, -0.000010, -0.000398 )     1.06312434
  WF centre and spread    3  (  0.000307,  0.000230, -0.000105 )     0.62920438
  WF centre and spread    4  (  0.000322,  0.000269, -0.000096 )     0.66558191
  WF centre and spread    5  (  0.000645,  0.000554, -0.000062 )     0.91560642
  WF centre and spread    6  (  6.723051,  2.027071,  1.241325 )     0.40516012
  WF centre and spread    7  (  6.723034,  2.027069,  1.241324 )     0.39056192
  WF centre and spread    8  (  6.723033,  2.027068,  1.241320 )     0.37677946
  WF centre and spread    9  (  6.723033,  2.027068,  1.241320 )     0.38006088
  WF centre and spread   10  (  6.723030,  2.027067,  1.241321 )     0.39752319
  WF centre and spread   11  (  3.360151,  1.013171,  0.618567 )     1.26470589
  WF centre and spread   12  (  3.368825,  1.013981,  0.620841 )     0.99445891
  WF centre and spread   13  (  3.358483,  1.013668,  0.621523 )     1.07580288
  WF centre and spread   14  ( 10.087212,  3.041218,  1.863761 )     1.26008360
  WF centre and spread   15  ( 10.077332,  3.040146,  1.861808 )     0.99452272
  WF centre and spread   16  ( 10.087813,  3.040724,  1.861054 )     1.07514887
  Sum of centres and spreads ( 73.961568, 22.299898, 13.653297 )    13.32943972

     12    -0.156E-02     0.6099182964       13.3294053526      30.06  <-- CONV
        O_D=      0.0137607 O_OD=      2.4934655 O_TOT=     13.3294054 <-- SPRD
 Delta: O_D= -0.1349367E-02 O_OD= -0.2089957E-03 O_TOT= -0.1558363E-02 <-- DLTA
 ------------------------------------------------------------------------------
 Cycle:     13
  WF centre and spread    1  ( -0.030823, -0.008326, -0.006577 )     2.02562198
  WF centre and spread    2  (  0.000537,  0.000007, -0.000392 )     1.06263203
  WF centre and spread    3  (  0.000259,  0.000206, -0.000087 )     0.62514511
  WF centre and spread    4  (  0.000279,  0.000243, -0.000078 )     0.66176578
  WF centre and spread    5  (  0.000659,  0.000572, -0.000050 )     0.92041083
  WF centre and spread    6  (  6.723044,  2.027071,  1.241324 )     0.40464404
  WF centre and spread    7  (  6.723032,  2.027069,  1.241323 )     0.39032197
  WF centre and spread    8  (  6.723032,  2.027068,  1.241320 )     0.37660441
  WF centre and spread    9  (  6.723032,  2.027068,  1.241320 )     0.37987723
  WF centre and spread   10  (  6.723029,  2.027067,  1.241321 )     0.39735631
  WF centre and spread   11  (  3.359843,  1.013131,  0.618592 )     1.25576519
  WF centre and spread   12  (  3.368842,  1.013979,  0.620838 )     0.99349027
  WF centre and spread   13  (  3.358474,  1.013643,  0.621518 )     1.07189975
  WF centre and spread   14  ( 10.086915,  3.041175,  1.863737 )     1.25047574
  WF centre and spread   15  ( 10.077276,  3.040149,  1.861810 )     0.99360321
  WF centre and spread   16  ( 10.087792,  3.040725,  1.861073 )     1.07134318
  Sum of centres and spreads ( 73.925220, 22.290845, 13.646992 )    13.88095702

     13     0.552E+00     0.2227622209       13.8809226535      30.51  <-- CONV
        O_D=      0.5861475 O_OD=      2.4725961 O_TOT=     13.8809227 <-- SPRD
 Delta: O_D=  0.5723868E+00 O_OD= -0.2086946E-01 O_TOT=  0.5515173E+00 <-- DLTA
 ------------------------------------------------------------------------------
 Cycle:     14
  WF centre and spread    1  ( -0.014075, -0.002442, -0.003646 )     1.61729605
  WF centre and spread    2  (  0.000281,  0.000006, -0.000469 )     1.06486566
  WF centre and spread    3  (  0.000246,  0.000209, -0.000095 )     0.62561227
  WF centre and spread    4  (  0.000272,  0.000246, -0.000083 )     0.66214132
  WF centre and spread    5  (  0.000666,  0.000578, -0.000051 )     0.92050839
  WF centre and spread    6  (  6.723042,  2.027071,  1.241324 )     0.40468463
  WF centre and spread    7  (  6.723031,  2.027069,  1.241323 )     0.39033343
  WF centre and spread    8  (  6.723031,  2.027068,  1.241320 )     0.37661292
  WF centre and spread    9  (  6.723031,  2.027068,  1.241320 )     0.37988881
  WF centre and spread   10  (  6.723029,  2.027067,  1.241321 )     0.39735819
  WF centre and spread   11  (  3.359782,  1.013135,  0.618574 )     1.25668626
  WF centre and spread   12  (  3.368833,  1.013979,  0.620838 )     0.99354581
  WF centre and spread   13  (  3.358472,  1.013644,  0.621518 )     1.07201846
  WF centre and spread   14  ( 10.086859,  3.041184,  1.863717 )     1.25147984
  WF centre and spread   15  ( 10.077265,  3.040148,  1.861809 )     0.99366349
  WF centre and spread   16  ( 10.087790,  3.040727,  1.861072 )     1.07140965
  Sum of centres and spreads ( 73.941557, 22.296757, 13.649791 )    13.47810519

     14    -0.403E+00    20.2508794503       13.4780708207      30.95  <-- CONV
        O_D=      0.1803679 O_OD=      2.4755239 O_TOT=     13.4780708 <-- SPRD
 Delta: O_D= -0.4057796E+00 O_OD=  0.2927784E-02 O_TOT= -0.4028518E+00 <-- DLTA
 ------------------------------------------------------------------------------
 Cycle:     15
  WF centre and spread    1  ( -0.006696, -0.000614, -0.002271 )     1.49443672
  WF centre and spread    2  (  0.000249, -0.000007, -0.000501 )     1.06822816
  WF centre and spread    3  (  0.000246,  0.000212, -0.000099 )     0.62624910
  WF centre and spread    4  (  0.000273,  0.000250, -0.000087 )     0.66263715
  WF centre and spread    5  (  0.000669,  0.000583, -0.000053 )     0.92078830
  WF centre and spread    6  (  6.723042,  2.027071,  1.241324 )     0.40473442
  WF centre and spread    7  (  6.723031,  2.027069,  1.241323 )     0.39034503
  WF centre and spread    8  (  6.723031,  2.027068,  1.241320 )     0.37662207
  WF centre and spread    9  (  6.723031,  2.027068,  1.241320 )     0.37990264
  WF centre and spread   10  (  6.723029,  2.027067,  1.241321 )     0.39735725
  WF centre and spread   11  (  3.359794,  1.013137,  0.618569 )     1.25781083
  WF centre and spread   12  (  3.368835,  1.013979,  0.620838 )     0.99361586
  WF centre and spread   13  (  3.358473,  1.013644,  0.621517 )     1.07208999
  WF centre and spread   14  ( 10.086876,  3.041193,  1.863708 )     1.25270540
  WF centre and spread   15  ( 10.077262,  3.040147,  1.861809 )     0.99372765
  WF centre and spread   16  ( 10.087790,  3.040730,  1.861072 )     1.07144910
  Sum of centres and spreads ( 73.948935, 22.298597, 13.651109 )    13.36269968

     15    -0.115E+00     2.9152591757       13.3626653159      31.40  <-- CONV
        O_D=      0.0612031 O_OD=      2.4792832 O_TOT=     13.3626653 <-- SPRD
 Delta: O_D= -0.1191648E+00 O_OD=  0.3759295E-02 O_TOT= -0.1154055E+00 <-- DLTA
 ------------------------------------------------------------------------------
 Cycle:     16
  WF centre and spread    1  ( -0.001464,  0.000009, -0.001187 )     1.44907617
  WF centre and spread    2  (  0.000476, -0.000027, -0.000482 )     1.07039048
  WF centre and spread    3  (  0.000258,  0.000215, -0.000101 )     0.62649921
  WF centre and spread    4  (  0.000281,  0.000253, -0.000089 )     0.66278931
  WF centre and spread    5  (  0.000669,  0.000586, -0.000055 )     0.92128434
  WF centre and spread    6  (  6.723044,  2.027071,  1.241324 )     0.40473881
  WF centre and spread    7  (  6.723032,  2.027069,  1.241323 )     0.39033858
  WF centre and spread    8  (  6.723032,  2.027068,  1.241320 )     0.37661938
  WF centre and spread    9  (  6.723031,  2.027068,  1.241320 )     0.37990320
  WF centre and spread   10  (  6.723029,  2.027067,  1.241321 )     0.39734773
  WF centre and spread   11  (  3.359887,  1.013136,  0.618578 )     1.25785033
  WF centre and spread   12  (  3.368847,  1.013980,  0.620838 )     0.99362355
  WF centre and spread   13  (  3.358475,  1.013642,  0.621516 )     1.07192889
  WF centre and spread   14  ( 10.086965,  3.041198,  1.863707 )     1.25286215
  WF centre and spread   15  ( 10.077266,  3.040146,  1.861809 )     0.99371626
  WF centre and spread   16  ( 10.087791,  3.040733,  1.861072 )     1.07128354
  Sum of centres and spreads ( 73.954617, 22.299213, 13.652216 )    13.32025195

     16    -0.424E-01     1.0665635977       13.3202175811      31.85  <-- CONV
        O_D=      0.0179063 O_OD=      2.4801322 O_TOT=     13.3202176 <-- SPRD
 Delta: O_D= -0.4329675E-01 O_OD=  0.8490158E-03 O_TOT= -0.4244773E-01 <-- DLTA
 ------------------------------------------------------------------------------
 Cycle:     17
  WF centre and spread    1  (  0.002580,  0.000619, -0.000325 )     1.44573266
  WF centre and spread    2  (  0.000676, -0.000035, -0.000440 )     1.07057796
  WF centre and spread    3  (  0.000266,  0.000214, -0.000098 )     0.62626947
  WF centre and spread    4  (  0.000285,  0.000252, -0.000087 )     0.66255292
  WF centre and spread    5  (  0.000666,  0.000586, -0.000054 )     0.92169976
  WF centre and spread    6  (  6.723045,  2.027071,  1.241325 )     0.40470181
  WF centre and spread    7  (  6.723032,  2.027069,  1.241323 )     0.39032016
  WF centre and spread    8  (  6.723032,  2.027068,  1.241320 )     0.37660760
  WF centre and spread    9  (  6.723032,  2.027068,  1.241320 )     0.37989158
  WF centre and spread   10  (  6.723029,  2.027067,  1.241321 )     0.39733558
  WF centre and spread   11  (  3.359942,  1.013132,  0.618590 )     1.25704541
  WF centre and spread   12  (  3.368856,  1.013980,  0.620838 )     0.99356773
  WF centre and spread   13  (  3.358476,  1.013639,  0.621515 )     1.07165048
  WF centre and spread   14  ( 10.087018,  3.041195,  1.863713 )     1.25206770
  WF centre and spread   15  ( 10.077269,  3.040146,  1.861809 )     0.99365046
  WF centre and spread   16  ( 10.087791,  3.040733,  1.861072 )     1.07102500
  Sum of centres and spreads ( 73.958995, 22.299804, 13.653143 )    13.31469627

     17    -0.556E-02     0.4283313961       13.3146619074      32.30  <-- CONV
        O_D=      0.0140880 O_OD=      2.4783948 O_TOT=     13.3146619 <-- SPRD
 Delta: O_D= -0.3818311E-02 O_OD= -0.1737362E-02 O_TOT= -0.5555674E-02 <-- DLTA
 ------------------------------------------------------------------------------
 Cycle:     18
  WF centre and spread    1  (  0.004137,  0.000633,  0.000050 )     1.44533668
  WF centre and spread    2  (  0.000814, -0.000045, -0.000414 )     1.07075150
  WF centre and spread    3  (  0.000270,  0.000213, -0.000096 )     0.62584076
  WF centre and spread    4  (  0.000286,  0.000251, -0.000086 )     0.66212307
  WF centre and spread    5  (  0.000665,  0.000588, -0.000054 )     0.92236751
  WF centre and spread    6  (  6.723046,  2.027071,  1.241325 )     0.40463840
  WF centre and spread    7  (  6.723032,  2.027069,  1.241323 )     0.39028940
  WF centre and spread    8  (  6.723032,  2.027068,  1.241320 )     0.37658735
  WF centre and spread    9  (  6.723032,  2.027068,  1.241320 )     0.37987119
  WF centre and spread   10  (  6.723029,  2.027067,  1.241321 )     0.39731534
  WF centre and spread   11  (  3.359978,  1.013128,  0.618600 )     1.25570368
  WF centre and spread   12  (  3.368865,  1.013980,  0.620838 )     0.99346794
  WF centre and spread   13  (  3.358477,  1.013635,  0.621514 )     1.07119485
  WF centre and spread   14  ( 10.087050,  3.041191,  1.863714 )     1.25073849
  WF centre and spread   15  ( 10.077268,  3.040147,  1.861809 )     0.99354112
  WF centre and spread   16  ( 10.087790,  3.040734,  1.861074 )     1.07058085
  Sum of centres and spreads ( 73.960771, 22.299796, 13.653558 )    13.31034815

     18    -0.435E-02     0.5285613510       13.3103137828      32.74  <-- CONV
        O_D=      0.0127126 O_OD=      2.4754221 O_TOT=     13.3103138 <-- SPRD
 Delta: O_D= -0.1375403E-02 O_OD= -0.2972722E-02 O_TOT= -0.4348125E-02 <-- DLTA
 ------------------------------------------------------------------------------
 Cycle:     19
  WF centre and spread    1  (  0.002924,  0.000344, -0.000168 )     1.44671753
  WF centre and spread    2  (  0.000788, -0.000046, -0.000412 )     1.07082797
  WF centre and spread    3  (  0.000266,  0.000211, -0.000095 )     0.62550255
  WF centre and spread    4  (  0.000283,  0.000249, -0.000085 )     0.66179070
  WF centre and spread    5  (  0.000666,  0.000589, -0.000053 )     0.92281919
  WF centre and spread    6  (  6.723045,  2.027071,  1.241325 )     0.40459485
  WF centre and spread    7  (  6.723032,  2.027069,  1.241323 )     0.39026871
  WF centre and spread    8  (  6.723032,  2.027068,  1.241320 )     0.37657253
  WF centre and spread    9  (  6.723032,  2.027068,  1.241320 )     0.37985590
  WF centre and spread   10  (  6.723029,  2.027067,  1.241321 )     0.39730085
  WF centre and spread   11  (  3.359959,  1.013124,  0.618602 )     1.25489738
  WF centre and spread   12  (  3.368867,  1.013980,  0.620838 )     0.99339290
  WF centre and spread   13  (  3.358476,  1.013632,  0.621514 )     1.07087204
  WF centre and spread   14  ( 10.087031,  3.041188,  1.863713 )     1.24988688
  WF centre and spread   15  ( 10.077263,  3.040147,  1.861810 )     0.99346778
  WF centre and spread   16  ( 10.087788,  3.040734,  1.861075 )     1.07026251
  Sum of centres and spreads ( 73.959482, 22.299493, 13.653348 )    13.30903028

     19    -0.132E-02     0.2825634245       13.3089959111      33.19  <-- CONV
        O_D=      0.0131856 O_OD=      2.4736312 O_TOT=     13.3089959 <-- SPRD
 Delta: O_D=  0.4730333E-03 O_OD= -0.1790905E-02 O_TOT= -0.1317872E-02 <-- DLTA
 ------------------------------------------------------------------------------
 Cycle:     20
  WF centre and spread    1  (  0.003890,  0.000595,  0.000029 )     1.44547915
  WF centre and spread    2  (  0.000803, -0.000046, -0.000403 )     1.07086949
  WF centre and spread    3  (  0.000267,  0.000210, -0.000094 )     0.62543351
  WF centre and spread    4  (  0.000282,  0.000248, -0.000084 )     0.66172202
  WF centre and spread    5  (  0.000665,  0.000589, -0.000052 )     0.92291497
  WF centre and spread    6  (  6.723046,  2.027071,  1.241325 )     0.40458629
  WF centre and spread    7  (  6.723032,  2.027069,  1.241323 )     0.39026458
  WF centre and spread    8  (  6.723032,  2.027068,  1.241320 )     0.37656945
  WF centre and spread    9  (  6.723032,  2.027068,  1.241320 )     0.37985272
  WF centre and spread   10  (  6.723029,  2.027067,  1.241321 )     0.39729777
  WF centre and spread   11  (  3.359957,  1.013122,  0.618604 )     1.25475818
  WF centre and spread   12  (  3.368868,  1.013980,  0.620838 )     0.99337777
  WF centre and spread   13  (  3.358476,  1.013632,  0.621514 )     1.07080188
  WF centre and spread   14  ( 10.087029,  3.041186,  1.863714 )     1.24972493
  WF centre and spread   15  ( 10.077263,  3.040147,  1.861810 )     0.99345343
  WF centre and spread   16  ( 10.087788,  3.040734,  1.861076 )     1.07019871
  Sum of centres and spreads ( 73.960460, 22.299738, 13.653560 )    13.30730486

     20    -0.173E-02     0.4847087766       13.3072704922      33.64  <-- CONV
        O_D=      0.0117492 O_OD=      2.4733422 O_TOT=     13.3072705 <-- SPRD
 Delta: O_D= -0.1436480E-02 O_OD= -0.2889387E-03 O_TOT= -0.1725419E-02 <-- DLTA
 ------------------------------------------------------------------------------
 Cycle:     21
  WF centre and spread    1  ( -0.001823, -0.000237, -0.001140 )     1.45326203
  WF centre and spread    2  (  0.000501, -0.000045, -0.000422 )     1.07058385
  WF centre and spread    3  (  0.000245,  0.000201, -0.000089 )     0.62409711
  WF centre and spread    4  (  0.000264,  0.000238, -0.000078 )     0.66042976
  WF centre and spread    5  (  0.000669,  0.000593, -0.000047 )     0.92446021
  WF centre and spread    6  (  6.723043,  2.027070,  1.241324 )     0.40442527
  WF centre and spread    7  (  6.723031,  2.027069,  1.241323 )     0.39019034
  WF centre and spread    8  (  6.723031,  2.027068,  1.241320 )     0.37651497
  WF centre and spread    9  (  6.723031,  2.027068,  1.241320 )     0.37979555
  WF centre and spread   10  (  6.723029,  2.027067,  1.241321 )     0.39724627
  WF centre and spread   11  (  3.359820,  1.013107,  0.618606 )     1.25186045
  WF centre and spread   12  (  3.368869,  1.013979,  0.620837 )     0.99309792
  WF centre and spread   13  (  3.358472,  1.013622,  0.621513 )     1.06965266
  WF centre and spread   14  ( 10.086896,  3.041171,  1.863706 )     1.24659429
  WF centre and spread   15  ( 10.077241,  3.040148,  1.861810 )     0.99319100
  WF centre and spread   16  ( 10.087780,  3.040733,  1.861082 )     1.06906209
  Sum of centres and spreads ( 73.954100, 22.298851, 13.652385 )    13.30446377

     21    -0.284E-02     0.2760838002       13.3044294081      34.08  <-- CONV
        O_D=      0.0155183 O_OD=      2.4667321 O_TOT=     13.3044294 <-- SPRD
 Delta: O_D=  0.3769099E-02 O_OD= -0.6610183E-02 O_TOT= -0.2841084E-02 <-- DLTA
 ------------------------------------------------------------------------------
 Cycle:     22
  WF centre and spread    1  (  0.001269,  0.000328, -0.000527 )     1.45104451
  WF centre and spread    2  (  0.000586, -0.000050, -0.000417 )     1.07033028
  WF centre and spread    3  (  0.000249,  0.000202, -0.000090 )     0.62396198
  WF centre and spread    4  (  0.000267,  0.000239, -0.000080 )     0.66030285
  WF centre and spread    5  (  0.000669,  0.000594, -0.000047 )     0.92458012
  WF centre and spread    6  (  6.723043,  2.027070,  1.241324 )     0.40440771
  WF centre and spread    7  (  6.723031,  2.027069,  1.241323 )     0.39018280
  WF centre and spread    8  (  6.723032,  2.027068,  1.241320 )     0.37651018
  WF centre and spread    9  (  6.723031,  2.027068,  1.241320 )     0.37979044
  WF centre and spread   10  (  6.723029,  2.027067,  1.241321 )     0.39724229
  WF centre and spread   11  (  3.359856,  1.013109,  0.618608 )     1.25140433
  WF centre and spread   12  (  3.368873,  1.013979,  0.620837 )     0.99307345
  WF centre and spread   13  (  3.358473,  1.013622,  0.621512 )     1.06955684
  WF centre and spread   14  ( 10.086927,  3.041172,  1.863706 )     1.24618727
  WF centre and spread   15  ( 10.077243,  3.040148,  1.861810 )     0.99315920
  WF centre and spread   16  ( 10.087780,  3.040733,  1.861082 )     1.06896806
  Sum of centres and spreads ( 73.957358, 22.299419, 13.653002 )    13.30070231

     22    -0.376E-02     0.6387548191       13.3006679492      34.53  <-- CONV
        O_D=      0.0128987 O_OD=      2.4655901 O_TOT=     13.3006679 <-- SPRD
 Delta: O_D= -0.2619510E-02 O_OD= -0.1141949E-02 O_TOT= -0.3761459E-02 <-- DLTA
 ------------------------------------------------------------------------------
 Cycle:     23
  WF centre and spread    1  (  0.002528,  0.000335, -0.000264 )     1.44939438
  WF centre and spread    2  (  0.000651, -0.000057, -0.000424 )     1.06995533
  WF centre and spread    3  (  0.000252,  0.000204, -0.000092 )     0.62374402
  WF centre and spread    4  (  0.000269,  0.000241, -0.000082 )     0.66009715
  WF centre and spread    5  (  0.000670,  0.000596, -0.000049 )     0.92478334
  WF centre and spread    6  (  6.723044,  2.027070,  1.241324 )     0.40437915
  WF centre and spread    7  (  6.723032,  2.027069,  1.241323 )     0.39017042
  WF centre and spread    8  (  6.723032,  2.027068,  1.241320 )     0.37650230
  WF centre and spread    9  (  6.723032,  2.027068,  1.241320 )     0.37978208
  WF centre and spread   10  (  6.723029,  2.027067,  1.241321 )     0.39723562
  WF centre and spread   11  (  3.359893,  1.013113,  0.618608 )     1.25067051
  WF centre and spread   12  (  3.368876,  1.013979,  0.620837 )     0.99303245
  WF centre and spread   13  (  3.358474,  1.013622,  0.621511 )     1.06940240
  WF centre and spread   14  ( 10.086959,  3.041175,  1.863701 )     1.24553411
  WF centre and spread   15  ( 10.077243,  3.040148,  1.861810 )     0.99310855
  WF centre and spread   16  ( 10.087781,  3.040735,  1.861081 )     1.06880765
  Sum of centres and spreads ( 73.958763, 22.299433, 13.653247 )    13.29659944

     23    -0.410E-02     0.9374020719       13.2965650761      34.98  <-- CONV
        O_D=      0.0106292 O_OD=      2.4637568 O_TOT=     13.2965651 <-- SPRD
 Delta: O_D= -0.2269514E-02 O_OD= -0.1833359E-02 O_TOT= -0.4102873E-02 <-- DLTA
 ------------------------------------------------------------------------------
 Cycle:     24
  WF centre and spread    1  (  0.002015,  0.000192, -0.000360 )     1.44973660
  WF centre and spread    2  (  0.000643, -0.000058, -0.000426 )     1.06988432
  WF centre and spread    3  (  0.000252,  0.000204, -0.000092 )     0.62366674
  WF centre and spread    4  (  0.000268,  0.000241, -0.000082 )     0.66002301
  WF centre and spread    5  (  0.000670,  0.000597, -0.000049 )     0.92486338
  WF centre and spread    6  (  6.723044,  2.027070,  1.241324 )     0.40436973
  WF centre and spread    7  (  6.723032,  2.027069,  1.241323 )     0.39016620
  WF centre and spread    8  (  6.723032,  2.027068,  1.241320 )     0.37649935
  WF centre and spread    9  (  6.723031,  2.027068,  1.241320 )     0.37977896
  WF centre and spread   10  (  6.723029,  2.027067,  1.241321 )     0.39723295
  WF centre and spread   11  (  3.359891,  1.013113,  0.618607 )     1.25047333
  WF centre and spread   12  (  3.368877,  1.013979,  0.620837 )     0.99301733
  WF centre and spread   13  (  3.358473,  1.013622,  0.621511 )     1.06934247
  WF centre and spread   14  ( 10.086956,  3.041174,  1.863701 )     1.24533657
  WF centre and spread   15  ( 10.077242,  3.040148,  1.861810 )     0.99309312
  WF centre and spread   16  ( 10.087780,  3.040735,  1.861082 )     1.06874712
  Sum of centres and spreads ( 73.958235, 22.299289, 13.653148 )    13.29623120

     24    -0.368E-03     0.2785708099       13.2961968389      35.42  <-- CONV
        O_D=      0.0107338 O_OD=      2.4632839 O_TOT=     13.2961968 <-- SPRD
 Delta: O_D=  0.1045691E-03 O_OD= -0.4728063E-03 O_TOT= -0.3682372E-03 <-- DLTA
 ------------------------------------------------------------------------------
 Cycle:     25
  WF centre and spread    1  ( -0.000550, -0.000628, -0.000767 )     1.46668994
  WF centre and spread    2  (  0.000616, -0.000068, -0.000409 )     1.06873959
  WF centre and spread    3  (  0.000243,  0.000197, -0.000088 )     0.62213108
  WF centre and spread    4  (  0.000258,  0.000234, -0.000078 )     0.65854081
  WF centre and spread    5  (  0.000670,  0.000601, -0.000045 )     0.92650243
  WF centre and spread    6  (  6.723043,  2.027070,  1.241324 )     0.40418341
  WF centre and spread    7  (  6.723031,  2.027069,  1.241323 )     0.39008195
  WF centre and spread    8  (  6.723031,  2.027068,  1.241320 )     0.37643988
  WF centre and spread    9  (  6.723031,  2.027068,  1.241320 )     0.37971643
  WF centre and spread   10  (  6.723029,  2.027067,  1.241321 )     0.39717844
  WF centre and spread   11  (  3.359855,  1.013101,  0.618618 )     1.24669326
  WF centre and spread   12  (  3.368887,  1.013978,  0.620836 )     0.99271781
  WF centre and spread   13  (  3.358471,  1.013612,  0.621509 )     1.06811113
  WF centre and spread   14  ( 10.086912,  3.041161,  1.863698 )     1.24145690
  WF centre and spread   15  ( 10.077228,  3.040149,  1.861811 )     0.99279064
  WF centre and spread   16  ( 10.087774,  3.040735,  1.861087 )     1.06753597
  Sum of centres and spreads ( 73.955530, 22.298414, 13.652780 )    13.29950969

     25     0.328E-02     0.3769893280       13.2994753221      35.87  <-- CONV
        O_D=      0.0230341 O_OD=      2.4542621 O_TOT=     13.2994753 <-- SPRD
 Delta: O_D=  0.1230034E-01 O_OD= -0.9021853E-02 O_TOT=  0.3278483E-02 <-- DLTA
 ------------------------------------------------------------------------------
 Cycle:     26
  WF centre and spread    1  (  0.006788,  0.001358,  0.000632 )     1.48452796
  WF centre and spread    2  (  0.000680, -0.000068, -0.000391 )     1.06900690
  WF centre and spread    3  (  0.000245,  0.000197, -0.000086 )     0.62217548
  WF centre and spread    4  (  0.000260,  0.000233, -0.000077 )     0.65857454
  WF centre and spread    5  (  0.000669,  0.000600, -0.000044 )     0.92652549
  WF centre and spread    6  (  6.723043,  2.027070,  1.241324 )     0.40418711
  WF centre and spread    7  (  6.723031,  2.027069,  1.241323 )     0.39008281
  WF centre and spread    8  (  6.723032,  2.027068,  1.241320 )     0.37644048
  WF centre and spread    9  (  6.723032,  2.027068,  1.241320 )     0.37971736
  WF centre and spread   10  (  6.723029,  2.027067,  1.241321 )     0.39717826
  WF centre and spread   11  (  3.359869,  1.013100,  0.618622 )     1.24679274
  WF centre and spread   12  (  3.368889,  1.013978,  0.620837 )     0.99272362
  WF centre and spread   13  (  3.358472,  1.013612,  0.621509 )     1.06810854
  WF centre and spread   14  ( 10.086927,  3.041160,  1.863702 )     1.24154651
[...]
  WF centre and spread    3  (  0.000188,  0.000161, -0.000071 )     0.61433904
  WF centre and spread    4  (  0.000185,  0.000188, -0.000065 )     0.64925445
  WF centre and spread    5  (  0.000607,  0.000641, -0.000067 )     0.94307210
  WF centre and spread    6  (  6.723040,  2.027070,  1.241324 )     0.40339172
  WF centre and spread    7  (  6.723031,  2.027069,  1.241323 )     0.38961569
  WF centre and spread    8  (  6.723031,  2.027068,  1.241320 )     0.37602134
  WF centre and spread    9  (  6.723031,  2.027068,  1.241320 )     0.37930935
  WF centre and spread   10  (  6.723028,  2.027067,  1.241321 )     0.39669595
  WF centre and spread   11  (  3.359804,  1.013088,  0.618709 )     1.23539941
  WF centre and spread   12  (  3.369015,  1.013976,  0.620837 )     0.99114080
  WF centre and spread   13  (  3.358458,  1.013530,  0.621486 )     1.05838665
  WF centre and spread   14  ( 10.086867,  3.041176,  1.863668 )     1.22931781
  WF centre and spread   15  ( 10.077093,  3.040155,  1.861811 )     0.99129255
  WF centre and spread   16  ( 10.087725,  3.040791,  1.861120 )     1.05814562
  Sum of centres and spreads ( 73.956760, 22.299862, 13.653154 )    13.26790459

     91    -0.239E-01     0.6582166542       13.2678702229      65.39  <-- CONV
        O_D=      0.0084676 O_OD=      2.4372236 O_TOT=     13.2678702 <-- SPRD
 Delta: O_D= -0.2503395E-01 O_OD=  0.1159156E-02 O_TOT= -0.2387479E-01 <-- DLTA
 ------------------------------------------------------------------------------
 Cycle:     92
  WF centre and spread    1  (  0.002726,  0.000676, -0.000210 )     1.45502298
  WF centre and spread    2  (  0.000800,  0.000030, -0.000351 )     1.10121376
  WF centre and spread    3  (  0.000186,  0.000163, -0.000078 )     0.61321897
  WF centre and spread    4  (  0.000182,  0.000190, -0.000070 )     0.64809725
  WF centre and spread    5  (  0.000600,  0.000647, -0.000071 )     0.94415789
  WF centre and spread    6  (  6.723040,  2.027070,  1.241324 )     0.40327007
  WF centre and spread    7  (  6.723031,  2.027069,  1.241323 )     0.38956075
  WF centre and spread    8  (  6.723031,  2.027068,  1.241320 )     0.37598216
  WF centre and spread    9  (  6.723031,  2.027068,  1.241320 )     0.37926875
  WF centre and spread   10  (  6.723028,  2.027067,  1.241321 )     0.39666040
  WF centre and spread   11  (  3.359847,  1.013091,  0.618705 )     1.23255037
  WF centre and spread   12  (  3.369025,  1.013975,  0.620836 )     0.99094575
  WF centre and spread   13  (  3.358458,  1.013525,  0.621483 )     1.05764939
  WF centre and spread   14  ( 10.086893,  3.041176,  1.863654 )     1.22663528
  WF centre and spread   15  ( 10.077085,  3.040155,  1.861812 )     0.99107120
  WF centre and spread   16  ( 10.087722,  3.040795,  1.861121 )     1.05737575
  Sum of centres and spreads ( 73.958685, 22.299765, 13.653438 )    13.26268072

     92    -0.522E-02     0.2686365260       13.2626463590      65.84  <-- CONV
        O_D=      0.0102975 O_OD=      2.4301697 O_TOT=     13.2626464 <-- SPRD
 Delta: O_D=  0.1829981E-02 O_OD= -0.7053845E-02 O_TOT= -0.5223864E-02 <-- DLTA
 ------------------------------------------------------------------------------
 Cycle:     93
  WF centre and spread    1  (  0.001567,  0.000564, -0.000393 )     1.48130442
  WF centre and spread    2  (  0.000589, -0.000039, -0.000388 )     1.09973499
  WF centre and spread    3  (  0.000160,  0.000152, -0.000078 )     0.60939579
  WF centre and spread    4  (  0.000155,  0.000177, -0.000070 )     0.64412148
  WF centre and spread    5  (  0.000556,  0.000652, -0.000073 )     0.94784244
  WF centre and spread    6  (  6.723039,  2.027070,  1.241324 )     0.40286294
  WF centre and spread    7  (  6.723030,  2.027069,  1.241322 )     0.38937513
  WF centre and spread    8  (  6.723030,  2.027068,  1.241320 )     0.37584745
  WF centre and spread    9  (  6.723030,  2.027068,  1.241320 )     0.37912913
  WF centre and spread   10  (  6.723028,  2.027067,  1.241321 )     0.39653623
  WF centre and spread   11  (  3.359804,  1.013077,  0.618713 )     1.22367270
  WF centre and spread   12  (  3.369048,  1.013973,  0.620834 )     0.99027921
  WF centre and spread   13  (  3.358453,  1.013499,  0.621476 )     1.05507401
  WF centre and spread   14  ( 10.086818,  3.041156,  1.863637 )     1.21780143
  WF centre and spread   15  ( 10.077045,  3.040157,  1.861813 )     0.99037551
  WF centre and spread   16  ( 10.087707,  3.040801,  1.861130 )     1.05476689
  Sum of centres and spreads ( 73.957060, 22.299508, 13.653208 )    13.25811975

     93    -0.456E-02     0.3014919206       13.2580853826      66.29  <-- CONV
        O_D=      0.0274880 O_OD=      2.4084183 O_TOT=     13.2580854 <-- SPRD
 Delta: O_D=  0.1719050E-01 O_OD= -0.2175147E-01 O_TOT= -0.4560976E-02 <-- DLTA
 ------------------------------------------------------------------------------
 Cycle:     94
  WF centre and spread    1  (  0.004023,  0.000259,  0.000468 )     1.47239608
  WF centre and spread    2  (  0.000653, -0.000045, -0.000353 )     1.10024334
  WF centre and spread    3  (  0.000160,  0.000149, -0.000074 )     0.60919412
  WF centre and spread    4  (  0.000154,  0.000173, -0.000067 )     0.64387981
  WF centre and spread    5  (  0.000552,  0.000649, -0.000069 )     0.94815295
  WF centre and spread    6  (  6.723039,  2.027069,  1.241324 )     0.40284709
  WF centre and spread    7  (  6.723030,  2.027069,  1.241322 )     0.38936621
  WF centre and spread    8  (  6.723030,  2.027068,  1.241320 )     0.37583873
  WF centre and spread    9  (  6.723030,  2.027068,  1.241320 )     0.37912050
  WF centre and spread   10  (  6.723028,  2.027067,  1.241321 )     0.39652661
  WF centre and spread   11  (  3.359803,  1.013070,  0.618721 )     1.22347175
  WF centre and spread   12  (  3.369052,  1.013973,  0.620834 )     0.99024916
  WF centre and spread   13  (  3.358453,  1.013494,  0.621476 )     1.05489085
  WF centre and spread   14  ( 10.086819,  3.041150,  1.863644 )     1.21750978
  WF centre and spread   15  ( 10.077044,  3.040157,  1.861813 )     0.99034365
  WF centre and spread   16  ( 10.087706,  3.040799,  1.861131 )     1.05458503
  Sum of centres and spreads ( 73.959576, 22.299168, 13.654133 )    13.24861567

     94    -0.950E-02     0.6477843786       13.2485813084      66.74  <-- CONV
        O_D=      0.0182618 O_OD=      2.4081405 O_TOT=     13.2485813 <-- SPRD
 Delta: O_D= -0.9226281E-02 O_OD= -0.2777930E-03 O_TOT= -0.9504074E-02 <-- DLTA
 ------------------------------------------------------------------------------
 Cycle:     95
  WF centre and spread    1  (  0.001632,  0.000080, -0.000164 )     1.46519087
  WF centre and spread    2  (  0.000604, -0.000040, -0.000350 )     1.10053658
  WF centre and spread    3  (  0.000158,  0.000147, -0.000073 )     0.60918727
  WF centre and spread    4  (  0.000152,  0.000171, -0.000066 )     0.64386272
  WF centre and spread    5  (  0.000552,  0.000649, -0.000068 )     0.94820082
  WF centre and spread    6  (  6.723039,  2.027069,  1.241324 )     0.40284826
  WF centre and spread    7  (  6.723030,  2.027069,  1.241322 )     0.38936615
  WF centre and spread    8  (  6.723030,  2.027068,  1.241320 )     0.37583781
  WF centre and spread    9  (  6.723030,  2.027068,  1.241320 )     0.37911962
  WF centre and spread   10  (  6.723028,  2.027067,  1.241321 )     0.39652516
  WF centre and spread   11  (  3.359785,  1.013068,  0.618722 )     1.22359638
  WF centre and spread   12  (  3.369051,  1.013973,  0.620834 )     0.99024822
  WF centre and spread   13  (  3.358453,  1.013493,  0.621477 )     1.05486567
  WF centre and spread   14  ( 10.086804,  3.041149,  1.863646 )     1.21758528
  WF centre and spread   15  ( 10.077042,  3.040157,  1.861813 )     0.99034804
  WF centre and spread   16  ( 10.087706,  3.040799,  1.861132 )     1.05456447
  Sum of centres and spreads ( 73.957095, 22.298987, 13.653510 )    13.24188336

     95    -0.673E-02     1.2922769518       13.2418489909      67.18  <-- CONV
        O_D=      0.0111252 O_OD=      2.4085447 O_TOT=     13.2418490 <-- SPRD
 Delta: O_D= -0.7136568E-02 O_OD=  0.4042506E-03 O_TOT= -0.6732317E-02 <-- DLTA
 ------------------------------------------------------------------------------
 Cycle:     96
  WF centre and spread    1  ( -0.001227, -0.000214, -0.000908 )     1.46519551
  WF centre and spread    2  (  0.000500, -0.000026, -0.000331 )     1.10040161
  WF centre and spread    3  (  0.000151,  0.000142, -0.000068 )     0.60859050
  WF centre and spread    4  (  0.000144,  0.000165, -0.000061 )     0.64322277
  WF centre and spread    5  (  0.000546,  0.000647, -0.000066 )     0.94879873
  WF centre and spread    6  (  6.723038,  2.027069,  1.241324 )     0.40278888
  WF centre and spread    7  (  6.723030,  2.027069,  1.241322 )     0.38933831
  WF centre and spread    8  (  6.723030,  2.027068,  1.241320 )     0.37581676
  WF centre and spread    9  (  6.723030,  2.027068,  1.241320 )     0.37909801
  WF centre and spread   10  (  6.723028,  2.027067,  1.241321 )     0.39650494
  WF centre and spread   11  (  3.359744,  1.013063,  0.618727 )     1.22239241
  WF centre and spread   12  (  3.369054,  1.013972,  0.620834 )     0.99014501
  WF centre and spread   13  (  3.358452,  1.013488,  0.621476 )     1.05444609
  WF centre and spread   14  ( 10.086763,  3.041144,  1.863650 )     1.21627324
  WF centre and spread   15  ( 10.077034,  3.040157,  1.861813 )     0.99025844
  WF centre and spread   16  ( 10.087703,  3.040799,  1.861134 )     1.05416829
  Sum of centres and spreads ( 73.954018, 22.298679, 13.652807 )    13.23743951

     96    -0.444E-02     0.3468488817       13.2374051459      67.63  <-- CONV
        O_D=      0.0095596 O_OD=      2.4056665 O_TOT=     13.2374051 <-- SPRD
 Delta: O_D= -0.1565623E-02 O_OD= -0.2878222E-02 O_TOT= -0.4443845E-02 <-- DLTA
 ------------------------------------------------------------------------------
 Cycle:     97
  WF centre and spread    1  (  0.000677, -0.000027, -0.000426 )     1.46277255
  WF centre and spread    2  (  0.000541, -0.000027, -0.000327 )     1.10033192
  WF centre and spread    3  (  0.000152,  0.000142, -0.000069 )     0.60855284
  WF centre and spread    4  (  0.000145,  0.000166, -0.000062 )     0.64318381
  WF centre and spread    5  (  0.000545,  0.000647, -0.000066 )     0.94883021
  WF centre and spread    6  (  6.723038,  2.027069,  1.241324 )     0.40278479
  WF centre and spread    7  (  6.723030,  2.027069,  1.241322 )     0.38933649
  WF centre and spread    8  (  6.723030,  2.027068,  1.241320 )     0.37581554
  WF centre and spread    9  (  6.723030,  2.027068,  1.241320 )     0.37909676
  WF centre and spread   10  (  6.723028,  2.027067,  1.241321 )     0.39650388
  WF centre and spread   11  (  3.359755,  1.013063,  0.618728 )     1.22227464
  WF centre and spread   12  (  3.369055,  1.013973,  0.620834 )     0.99013885
  WF centre and spread   13  (  3.358452,  1.013488,  0.621476 )     1.05442347
  WF centre and spread   14  ( 10.086772,  3.041144,  1.863650 )     1.21617151
  WF centre and spread   15  ( 10.077035,  3.040157,  1.861813 )     0.99024978
  WF centre and spread   16  ( 10.087703,  3.040799,  1.861134 )     1.05414543
  Sum of centres and spreads ( 73.955989, 22.298865, 13.653293 )    13.23461248

     97    -0.283E-02     0.9826563749       13.2345781131      68.08  <-- CONV
        O_D=      0.0070442 O_OD=      2.4053548 O_TOT=     13.2345781 <-- SPRD
 Delta: O_D= -0.2515332E-02 O_OD= -0.3117003E-03 O_TOT= -0.2827033E-02 <-- DLTA
 ------------------------------------------------------------------------------
 Cycle:     98
  WF centre and spread    1  (  0.001496,  0.000067, -0.000249 )     1.46251898
  WF centre and spread    2  (  0.000572, -0.000029, -0.000317 )     1.10021091
  WF centre and spread    3  (  0.000152,  0.000141, -0.000068 )     0.60843377
  WF centre and spread    4  (  0.000145,  0.000165, -0.000061 )     0.64305906
  WF centre and spread    5  (  0.000543,  0.000647, -0.000066 )     0.94893641
  WF centre and spread    6  (  6.723038,  2.027069,  1.241324 )     0.40277228
  WF centre and spread    7  (  6.723030,  2.027069,  1.241322 )     0.38933082
  WF centre and spread    8  (  6.723030,  2.027068,  1.241320 )     0.37581157
  WF centre and spread    9  (  6.723030,  2.027068,  1.241320 )     0.37909266
  WF centre and spread   10  (  6.723028,  2.027067,  1.241321 )     0.39650023
  WF centre and spread   11  (  3.359759,  1.013062,  0.618730 )     1.22198629
  WF centre and spread   12  (  3.369057,  1.013973,  0.620834 )     0.99011955
  WF centre and spread   13  (  3.358452,  1.013487,  0.621476 )     1.05434708
  WF centre and spread   14  ( 10.086776,  3.041142,  1.863652 )     1.21588039
  WF centre and spread   15  ( 10.077035,  3.040157,  1.861813 )     0.99022917
  WF centre and spread   16  ( 10.087703,  3.040799,  1.861134 )     1.05407164
  Sum of centres and spreads ( 73.956846, 22.298951, 13.653486 )    13.23330082

     98    -0.131E-02     0.4027258715       13.2332664523      68.53  <-- CONV
        O_D=      0.0064565 O_OD=      2.4046309 O_TOT=     13.2332665 <-- SPRD
 Delta: O_D= -0.5877424E-03 O_OD= -0.7239184E-03 O_TOT= -0.1311661E-02 <-- DLTA
 ------------------------------------------------------------------------------
 Cycle:     99
  WF centre and spread    1  ( -0.033055, -0.018267, -0.003111 )     2.50960526
  WF centre and spread    2  (  0.000354, -0.000091, -0.000344 )     1.09337171
  WF centre and spread    3  (  0.000123,  0.000126, -0.000067 )     0.60333557
  WF centre and spread    4  (  0.000113,  0.000147, -0.000060 )     0.63777490
  WF centre and spread    5  (  0.000471,  0.000646, -0.000068 )     0.95310349
  WF centre and spread    6  (  6.723036,  2.027069,  1.241323 )     0.40223389
  WF centre and spread    7  (  6.723029,  2.027068,  1.241322 )     0.38908972
  WF centre and spread    8  (  6.723029,  2.027068,  1.241320 )     0.37564583
  WF centre and spread    9  (  6.723030,  2.027068,  1.241320 )     0.37892092
  WF centre and spread   10  (  6.723028,  2.027067,  1.241321 )     0.39635180
  WF centre and spread   11  (  3.359714,  1.013049,  0.618737 )     1.20907842
  WF centre and spread   12  (  3.369085,  1.013970,  0.620831 )     0.98927540
  WF centre and spread   13  (  3.358447,  1.013456,  0.621467 )     1.05127374
  WF centre and spread   14  ( 10.086684,  3.041118,  1.863642 )     1.20322316
  WF centre and spread   15  ( 10.076987,  3.040159,  1.861814 )     0.98935382
  WF centre and spread   16  ( 10.087685,  3.040805,  1.861146 )     1.05097094
  Sum of centres and spreads ( 73.921760, 22.280458, 13.650595 )    14.23260857

     99     0.999E+00     0.2605340003       14.2325742097      68.97  <-- CONV
        O_D=      1.0392086 O_OD=      2.3711865 O_TOT=     14.2325742 <-- SPRD
 Delta: O_D=  0.1032752E+01 O_OD= -0.3344433E-01 O_TOT=  0.9993078E+00 <-- DLTA
 ------------------------------------------------------------------------------
 Cycle:    100
  WF centre and spread    1  ( -0.023230, -0.011065, -0.001900 )     2.04980892
  WF centre and spread    2  ( -0.001421, -0.000137, -0.000791 )     1.10232964
  WF centre and spread    3  (  0.000069,  0.000141, -0.000097 )     0.60427356
  WF centre and spread    4  (  0.000085,  0.000160, -0.000081 )     0.63852307
  WF centre and spread    5  (  0.000503,  0.000685, -0.000072 )     0.95325581
  WF centre and spread    6  (  6.723027,  2.027068,  1.241322 )     0.40232947
  WF centre and spread    7  (  6.723027,  2.027068,  1.241322 )     0.38911915
  WF centre and spread    8  (  6.723028,  2.027068,  1.241320 )     0.37566512
  WF centre and spread    9  (  6.723027,  2.027068,  1.241320 )     0.37894598
  WF centre and spread   10  (  6.723027,  2.027067,  1.241321 )     0.39635677
  WF centre and spread   11  (  3.359428,  1.013068,  0.618658 )     1.21145998
  WF centre and spread   12  (  3.369036,  1.013967,  0.620830 )     0.98947094
  WF centre and spread   13  (  3.358442,  1.013462,  0.621467 )     1.05155151
  WF centre and spread   14  ( 10.086412,  3.041142,  1.863566 )     1.20566128
  WF centre and spread   15  ( 10.076934,  3.040155,  1.861811 )     0.98957421
  WF centre and spread   16  ( 10.087679,  3.040814,  1.861144 )     1.05106373
  Sum of centres and spreads ( 73.929072, 22.287731, 13.651141 )    13.78938915

    100    -0.443E+00    90.1180492561       13.7893547826      69.42  <-- CONV
        O_D=      0.5889007 O_OD=      2.3782750 O_TOT=     13.7893548 <-- SPRD
 Delta: O_D= -0.4503079E+00 O_OD=  0.7088462E-02 O_TOT= -0.4432194E+00 <-- DLTA
 ------------------------------------------------------------------------------

 Writing checkpoint file wandn.chk... done

 Final State
  WF centre and spread    1  ( -0.023230, -0.011065, -0.001900 )     2.04980892
  WF centre and spread    2  ( -0.001421, -0.000137, -0.000791 )     1.10232964
  WF centre and spread    3  (  0.000069,  0.000141, -0.000097 )     0.60427356
  WF centre and spread    4  (  0.000085,  0.000160, -0.000081 )     0.63852307
  WF centre and spread    5  (  0.000503,  0.000685, -0.000072 )     0.95325581
  WF centre and spread    6  (  6.723027,  2.027068,  1.241322 )     0.40232947
  WF centre and spread    7  (  6.723027,  2.027068,  1.241322 )     0.38911915
  WF centre and spread    8  (  6.723028,  2.027068,  1.241320 )     0.37566512
  WF centre and spread    9  (  6.723027,  2.027068,  1.241320 )     0.37894598
  WF centre and spread   10  (  6.723027,  2.027067,  1.241321 )     0.39635677
  WF centre and spread   11  (  3.359428,  1.013068,  0.618658 )     1.21145998
  WF centre and spread   12  (  3.369036,  1.013967,  0.620830 )     0.98947094
  WF centre and spread   13  (  3.358442,  1.013462,  0.621467 )     1.05155151
  WF centre and spread   14  ( 10.086412,  3.041142,  1.863566 )     1.20566128
  WF centre and spread   15  ( 10.076934,  3.040155,  1.861811 )     0.98957421
  WF centre and spread   16  ( 10.087679,  3.040814,  1.861144 )     1.05106373
  Sum of centres and spreads ( 73.929072, 22.287731, 13.651141 )    13.78938915

         Spreads (Ang^2)       Omega I      =    10.822179088
        ================       Omega D      =     0.588900699
                               Omega OD     =     2.378274996
    Final Spread (Ang^2)       Omega Total  =    13.789354783
 ------------------------------------------------------------------------------
 Time for wannierise           45.005 (sec)

 Writing checkpoint file wandn.chk... done

 *---------------------------------------------------------------------------*
 |                               PLOTTING                                    |
 *---------------------------------------------------------------------------*

 Time for plotting             11.120 (sec)
 Total Execution Time          99.441 (sec)

 *===========================================================================*
 |                             TIMING INFORMATION                            |
 *===========================================================================*
 |    Tag                                                Ncalls      Time (s)|
 |---------------------------------------------------------------------------|
 |kmesh: get                                        :         1         7.367|
 |overlap: allocate                                 :         1         0.003|
 |overlap: read                                     :         1        10.551|
 |dis: main                                         :         1        25.068|
 |wann: main                                        :         1        45.005|
 |plot: main                                        :         1        11.120|
 *---------------------------------------------------------------------------*

 All done: wannier90 exiting
