
             +---------------------------------------------------+
             |                                                   |
             |                   WANNIER90                       |
             |                                                   |
             +---------------------------------------------------+
             |                                                   |
             |        Welcome to the Maximally-Localized         |
             |        Generalized Wannier Functions code         |
             |            http://www.wannier.org                 |
             |                                                   |
             |                                                   |
             |  Wannier90 Developer Group:                       |
             |    Giovanni Pizzi    (EPFL)                       |
             |    Valerio Vitale    (Cambridge)                  |
             |    David Vanderbilt  (Rutgers University)         |
             |    Nicola Marzari    (EPFL)                       |
             |    Ivo Souza         (Universidad del Pais Vasco) |
             |    Arash A. Mostofi  (Imperial College London)    |
             |    Jonathan R. Yates (University of Oxford)       |
             |                                                   |
             |  For the full list of Wannier90 3.x authors,      |
             |  please check the code documentation and the      |
             |  README on the GitHub page of the code            |
             |                                                   |
             |                                                   |
             |  Please cite                                      |
             |                                                   |
             |  [ref] "An updated version of Wannier90:          |
             |        A Tool for Obtaining Maximally Localised   |
             |        Wannier Functions", A. A. Mostofi,         |
             |        J. R. Yates, G. Pizzi, Y. S. Lee,          |
             |        I. Souza, D. Vanderbilt and N. Marzari,    |
             |        Comput. Phys. Commun. 185, 2309 (2014)     |
             |        http://dx.doi.org/10.1016/j.cpc.2014.05.003|
             |                                                   |
             |  in any publications arising from the use of      |
             |  this code. For the method please cite            |
             |                                                   |
             |  [ref] "Maximally Localized Generalised Wannier   |
             |         Functions for Composite Energy Bands"     |
             |         N. Marzari and D. Vanderbilt              |
             |         Phys. Rev. B 56 12847 (1997)              |
             |                                                   |
             |  [ref] "Maximally Localized Wannier Functions     |
             |         for Entangled Energy Bands"               |
             |         I. Souza, N. Marzari and D. Vanderbilt    |
             |         Phys. Rev. B 65 035109 (2001)             |
             |                                                   |
             |                                                   |
             | Copyright (c) 1996-2019                           |
             |        The Wannier90 Developer Group and          |
             |        individual contributors                    |
             |                                                   |
             |      Release: 3.0.0       27th February 2019      |
             |                                                   |
             | This program is free software; you can            |
             | redistribute it and/or modify it under the terms  |
             | of the GNU General Public License as published by |
             | the Free Software Foundation; either version 2 of |
             | the License, or (at your option) any later version|
             |                                                   |
             | This program is distributed in the hope that it   |
             | will be useful, but WITHOUT ANY WARRANTY; without |
             | even the implied warranty of MERCHANTABILITY or   |
             | FITNESS FOR A PARTICULAR PURPOSE. See the GNU     |
             | General Public License for more details.          |
             |                                                   |
             | You should have received a copy of the GNU General|
             | Public License along with this program; if not,   |
             | write to the Free Software Foundation, Inc.,      |
             | 675 Mass Ave, Cambridge, MA 02139, USA.           |
             |                                                   |
             +---------------------------------------------------+
             |    Execution started on  2Jun2020 at 23:41:35     |
             +---------------------------------------------------+
 
 ******************************************************************************
 * -> Using CODATA 2006 constant values                                       *
 *    (http://physics.nist.gov/cuu/Constants/index.html)                      *
 * -> Using Bohr value from CODATA                                            *
 ******************************************************************************
 

 Running in serial (with serial executable)

                                    ------
                                    SYSTEM
                                    ------

                              Lattice Vectors (Ang)
                    a_1     4.177002   2.088501   2.088501
                    a_2     2.088501   4.177002   2.088501
                    a_3     2.088501   2.088501   4.177002

                   Unit Cell Volume:      36.43879  (Ang^3)

                        Reciprocal-Space Vectors (Ang^-1)
                    b_1     2.256350  -0.752117  -0.752117
                    b_2    -0.752117   2.256350  -0.752117
                    b_3    -0.752117  -0.752117   2.256350
  
 *----------------------------------------------------------------------------*
 |   Site       Fractional Coordinate          Cartesian Coordinate (Ang)     |
 +----------------------------------------------------------------------------+
 | Ni   1   0.00000   0.00000   0.00000   |    0.00000   0.00000   0.00000    |
 | Ni   1   0.50000   0.50000   0.50000   |    4.17700   4.17700   4.17700    |
 | O    1   0.25000   0.25000   0.25000   |    2.08850   2.08850   2.08850    |
 | O    2   0.75000   0.75000   0.75000   |    6.26550   6.26550   6.26550    |
 *----------------------------------------------------------------------------*
                                ------------
                                K-POINT GRID
                                ------------
  
             Grid size =  5 x  5 x  5      Total points =  125
  
  
 *---------------------------------- MAIN ------------------------------------*
 |  Number of Wannier Functions               :                18             |
 |  Number of Objective Wannier Functions     :                18             |
 |  Number of input Bloch states              :                50             |
 |  Output verbosity (1=low, 5=high)          :                 1             |
 |  Timing Level (1=low, 5=high)              :                 1             |
 |  Optimisation (0=memory, 3=speed)          :                 3             |
 |  Length Unit                               :               Ang             |
 |  Post-processing setup (write *.nnkp)      :                 F             |
 |  Using Gamma-only branch of algorithms     :                 F             |
 *----------------------------------------------------------------------------*
 *------------------------------- WANNIERISE ---------------------------------*
 |  Total number of iterations                :               100             |
 |  Number of CG steps before reset           :                 5             |
 |  Trial step length for line search         :             2.000             |
 |  Convergence tolerence                     :         0.100E-09             |
 |  Convergence window                        :                -1             |
 |  Iterations between writing output         :                 1             |
 |  Iterations between backing up to disk     :               100             |
 |  Write r^2_nm to file                      :                 F             |
 |  Write xyz WF centres to file              :                 F             |
 |  Write on-site energies <0n|H|0n> to file  :                 F             |
 |  Use guiding centre to control phases      :                 F             |
 |  Use phases for initial projections        :                 F             |
 *----------------------------------------------------------------------------*
 *------------------------------- DISENTANGLE --------------------------------*
 |  Using band disentanglement                :                 T             |
 |  Total number of iterations                :               200             |
 |  Mixing ratio                              :             0.500             |
 |  Convergence tolerence                     :         1.000E-10             |
 |  Convergence window                        :                 3             |
 *----------------------------------------------------------------------------*
 Time to read parameters        0.024 (sec)

 *---------------------------------- K-MESH ----------------------------------*
 +----------------------------------------------------------------------------+
 |                    Distance to Nearest-Neighbour Shells                    |
 |                    ------------------------------------                    |
 |          Shell             Distance (Ang^-1)          Multiplicity         |
 |          -----             -----------------          ------------         |
 |             1                   0.260541                      2            |
 |             2                   0.498898                      6            |
 |             3                   0.521082                      8            |
 |             4                   0.601693                      6            |
 |             5                   0.655680                      6            |
 |             6                   0.781623                      8            |
 |             7                   0.850923                     12            |
 |             8                   0.889916                     12            |
 |             9                   0.986392                      6            |
 |            10                   0.997796                     24            |
 |            11                   1.042163                      8            |
 |            12                   1.074237                     12            |
 |            13                   1.155424                     18            |
 |            14                   1.203387                      6            |
 |            15                   1.231268                      6            |
 |            16                   1.302704                     14            |
 |            17                   1.311360                     24            |
 |            18                   1.345427                     24            |
 |            19                   1.370422                     18            |
 |            20                   1.434947                     12            |
 |            21                   1.473842                     24            |
 |            22                   1.496693                     18            |
 |            23                   1.555991                     18            |
 |            24                   1.563245                     32            |
 |            25                   1.613111                     12            |
 |            26                   1.668276                     12            |
 |            27                   1.701846                     12            |
 |            28                   1.721674                     30            |
 |            29                   1.773465                     18            |
 |            30                   1.779833                     48            |
 |            31                   1.805080                     30            |
 |            32                   1.823786                     14            |
 |            33                   1.872755                     24            |
 |            34                   1.902721                     24            |
 |            35                   1.920477                      6            |
 |            36                   1.967040                     30            |
 +----------------------------------------------------------------------------+
 | The b-vectors are chosen automatically                                     |
 | The following shells are used:   1,  2                                     |
 +----------------------------------------------------------------------------+
 |                        Shell   # Nearest-Neighbours                        |
 |                        -----   --------------------                        |
 |                          1               2                                 |
 |                          2               6                                 |
 +----------------------------------------------------------------------------+
 | Completeness relation is fully satisfied [Eq. (B1), PRB 56, 12847 (1997)]  |
 +----------------------------------------------------------------------------+
 |                  b_k Vectors (Ang^-1) and Weights (Ang^2)                  |
 |                  ----------------------------------------                  |
 |            No.         b_k(x)      b_k(y)      b_k(z)        w_b           |
 |            ---        --------------------------------     --------        |
 |             1         0.150423    0.150423    0.150423     6.905412        |
 |             2        -0.150423   -0.150423   -0.150423     6.905412        |
 |             3         0.451270   -0.150423   -0.150423     1.381082        |
 |             4        -0.150423    0.451270   -0.150423     1.381082        |
 |             5        -0.150423   -0.150423    0.451270     1.381082        |
 |             6         0.150423    0.150423   -0.451270     1.381082        |
 |             7         0.150423   -0.451270    0.150423     1.381082        |
 |             8        -0.451270    0.150423    0.150423     1.381082        |
 +----------------------------------------------------------------------------+
 |                           b_k Directions (Ang^-1)                          |
 |                           -----------------------                          |
 |            No.           x           y           z                         |
 |            ---        --------------------------------                     |
 |             1         0.150423    0.150423    0.150423                     |
 |             2         0.451270   -0.150423   -0.150423                     |
 |             3        -0.150423    0.451270   -0.150423                     |
 |             4        -0.150423   -0.150423    0.451270                     |
 +----------------------------------------------------------------------------+
  
 Time to get kmesh              1.242 (sec)
 *============================================================================*
 |                              MEMORY ESTIMATE                               |
 |         Maximum RAM allocated during each phase of the calculation         |
 *============================================================================*
 |                        Disentanglement           52.04 Mb                  |
 |                            Wannierise:           14.90 Mb                  |
 |                          plot_wannier:           14.90 Mb                  |
 *----------------------------------------------------------------------------*
  
 Starting a new Wannier90 calculation ...


 Reading overlaps from wandn.mmn    :  Created on 19Jun2019 at 12:34: 1

 Reading projections from wandn.amn :  Created on 19Jun2019 at 12:33:53

 Time to read overlaps          4.575 (sec)

 *------------------------------- DISENTANGLE --------------------------------*
 +----------------------------------------------------------------------------+
 |                              Energy  Windows                               |
 |                              ---------------                               |
 |                   Outer:   -3.32697  to   26.11160  (eV)                   |
 |                   Inner:    1.67303  to   21.11160  (eV)                   |
 +----------------------------------------------------------------------------+
   Number of target bands to extract:   18

                   Unitarised projection of Wannier functions                  
                   ------------------------------------------                  
   A_mn = <psi_m|g_n> --> S = A.A^+ --> U = S^-1/2.A
   In dis_project... done
   Using an inner window (linner = T)
   In dis_proj_froz... done

                   Extraction of optimally-connected subspace                  
                   ------------------------------------------                  
 +---------------------------------------------------------------------+<-- DIS
 |  Iter     Omega_I(i-1)      Omega_I(i)      Delta (frac.)    Time   |<-- DIS
 +---------------------------------------------------------------------+<-- DIS
       1      14.56674080      14.56674080       2.220E-16      0.00    <-- DIS
       2      14.56674080      14.56674080       2.220E-16      0.05    <-- DIS
       3      14.56674080      14.56674080       2.220E-16      0.10    <-- DIS

             <<<      Delta < 1.000E-10  over  3 iterations     >>>
             <<< Disentanglement convergence criteria satisfied >>>

        Final Omega_I    14.56674080 (Ang^2)

 +----------------------------------------------------------------------------+

 Time to disentangle bands      0.361 (sec)

 Writing checkpoint file wandn.chk... done


 *------------------------------- WANNIERISE ---------------------------------*
 +--------------------------------------------------------------------+<-- CONV
 | Iter  Delta Spread     RMS Gradient      Spread (Ang^2)      Time  |<-- CONV
 +--------------------------------------------------------------------+<-- CONV

 ------------------------------------------------------------------------------
 Initial State
  WF centre and spread    1  (  0.145019,  0.082731,  0.067870 )     8.02804105
  WF centre and spread    2  (  0.000001, -0.000012, -0.000038 )     0.39809854
  WF centre and spread    3  ( -0.000012,  0.000002,  0.000006 )     0.34946710
  WF centre and spread    4  (  0.000006, -0.000002,  0.000004 )     0.34946596
  WF centre and spread    5  ( -0.000004, -0.000012,  0.000003 )     0.39792350
  WF centre and spread    6  ( -0.000011,  0.000001,  0.000000 )     0.34944487
  WF centre and spread    7  (  4.343015,  4.225881,  4.181032 )     9.68490581
  WF centre and spread    8  (  4.177015,  4.176992,  4.176940 )     0.36247001
  WF centre and spread    9  (  4.176993,  4.177003,  4.177008 )     0.36951012
  WF centre and spread   10  (  4.177006,  4.177000,  4.177005 )     0.36950965
  WF centre and spread   11  (  4.176990,  4.176980,  4.177009 )     0.36185084
  WF centre and spread   12  (  4.177000,  4.177004,  4.177002 )     0.36952942
  WF centre and spread   13  (  2.092950,  2.093067,  2.084496 )     1.24172241
  WF centre and spread   14  (  2.087904,  2.090839,  2.090928 )     1.25810573
  WF centre and spread   15  (  2.092208,  2.085707,  2.092369 )     1.25941301
  WF centre and spread   16  (  6.269950,  6.270063,  6.274802 )     1.24386573
  WF centre and spread   17  (  6.277861,  6.267956,  6.267994 )     1.26081494
  WF centre and spread   18  (  6.269324,  6.275644,  6.269450 )     1.26174598
  Sum of centres and spreads ( 50.463214, 50.276845, 50.213878 )    28.91588466

      0     0.289E+02     0.0000000000       28.9158846612       0.32  <-- CONV
        O_D=      4.7422640 O_OD=      9.6068799 O_TOT=     28.9158847 <-- SPRD
 ------------------------------------------------------------------------------
 Cycle:      1
  WF centre and spread    1  (  0.158887,  0.103658,  0.091159 )     7.41566142
  WF centre and spread    2  (  0.000016, -0.000000,  0.000044 )     0.39798314
  WF centre and spread    3  ( -0.000034, -0.000007, -0.000028 )     0.34940313
  WF centre and spread    4  ( -0.000010, -0.000032, -0.000036 )     0.34939343
  WF centre and spread    5  (  0.000058,  0.000055, -0.000014 )     0.39774876
  WF centre and spread    6  ( -0.000036, -0.000020, -0.000008 )     0.34938253
  WF centre and spread    7  (  4.372155,  4.280767,  4.214285 )     9.23174185
  WF centre and spread    8  (  4.177000,  4.176990,  4.176834 )     0.36226913
  WF centre and spread    9  (  4.177063,  4.177012,  4.177054 )     0.36953231
  WF centre and spread   10  (  4.177015,  4.177071,  4.177074 )     0.36952982
  WF centre and spread   11  (  4.176922,  4.176904,  4.177030 )     0.36172928
  WF centre and spread   12  (  4.177059,  4.177066,  4.177008 )     0.36954621
  WF centre and spread   13  (  2.093211,  2.093297,  2.085005 )     1.23843564
  WF centre and spread   14  (  2.088543,  2.091259,  2.091321 )     1.25527548
  WF centre and spread   15  (  2.092631,  2.086702,  2.092826 )     1.25621768
  WF centre and spread   16  (  6.270247,  6.270398,  6.275026 )     1.24142606
  WF centre and spread   17  (  6.278619,  6.268662,  6.268638 )     1.26743958
  WF centre and spread   18  (  6.269958,  6.276423,  6.270083 )     1.26698909
  Sum of centres and spreads ( 50.509304, 50.356205, 50.273299 )    27.84970454

      1    -0.107E+01     4.5068141854       27.8497045375       0.43  <-- CONV
        O_D=      3.6900264 O_OD=      9.5929373 O_TOT=     27.8497045 <-- SPRD
 Delta: O_D= -0.1052238E+01 O_OD= -0.1394259E-01 O_TOT= -0.1066180E+01 <-- DLTA
 ------------------------------------------------------------------------------
 Cycle:      2
  WF centre and spread    1  (  0.163820,  0.108508,  0.095809 )     7.03682711
  WF centre and spread    2  (  0.000049,  0.000017,  0.000189 )     0.39813248
  WF centre and spread    3  ( -0.000091, -0.000017, -0.000091 )     0.34966600
  WF centre and spread    4  ( -0.000044, -0.000120, -0.000149 )     0.34961278
  WF centre and spread    5  (  0.000174,  0.000185, -0.000041 )     0.39783835
  WF centre and spread    6  ( -0.000092, -0.000047, -0.000013 )     0.34949183
  WF centre and spread    7  (  4.322280,  4.274781,  4.214006 )     8.70675357
  WF centre and spread    8  (  4.176962,  4.176970,  4.176634 )     0.36303376
  WF centre and spread    9  (  4.177178,  4.177034,  4.177141 )     0.37001297
  WF centre and spread   10  (  4.177038,  4.177175,  4.177195 )     0.36989247
  WF centre and spread   11  (  4.176802,  4.176765,  4.177066 )     0.36251792
  WF centre and spread   12  (  4.177147,  4.177196,  4.177025 )     0.36991825
  WF centre and spread   13  (  2.093316,  2.093537,  2.084784 )     1.24690393
  WF centre and spread   14  (  2.089495,  2.091582,  2.091429 )     1.25494156
  WF centre and spread   15  (  2.093194,  2.087395,  2.093439 )     1.26055868
  WF centre and spread   16  (  6.270601,  6.270838,  6.275317 )     1.25126895
  WF centre and spread   17  (  6.279760,  6.269090,  6.268901 )     1.28967424
  WF centre and spread   18  (  6.270214,  6.276954,  6.270392 )     1.28510390
  Sum of centres and spreads ( 50.467803, 50.357841, 50.279035 )    27.01214875

      2    -0.838E+00     2.3846829257       27.0121487546       0.54  <-- CONV
        O_D=      2.7631231 O_OD=      9.6822848 O_TOT=     27.0121488 <-- SPRD
 Delta: O_D= -0.9269033E+00 O_OD=  0.8934752E-01 O_TOT= -0.8375558E+00 <-- DLTA
 ------------------------------------------------------------------------------
 Cycle:      3
  WF centre and spread    1  (  0.174771,  0.105806,  0.088505 )     6.95361257
  WF centre and spread    2  (  0.000063,  0.000026,  0.000251 )     0.39830807
  WF centre and spread    3  ( -0.000109, -0.000021, -0.000123 )     0.34998796
  WF centre and spread    4  ( -0.000066, -0.000167, -0.000202 )     0.34990202
  WF centre and spread    5  (  0.000221,  0.000238, -0.000051 )     0.39802587
  WF centre and spread    6  ( -0.000110, -0.000056, -0.000012 )     0.34966882
  WF centre and spread    7  (  4.354327,  4.254208,  4.179134 )     8.40305083
  WF centre and spread    8  (  4.176942,  4.176960,  4.176544 )     0.36356757
  WF centre and spread    9  (  4.177244,  4.177041,  4.177165 )     0.37042107
  WF centre and spread   10  (  4.177039,  4.177220,  4.177250 )     0.37019942
  WF centre and spread   11  (  4.176748,  4.176703,  4.177079 )     0.36301646
  WF centre and spread   12  (  4.177199,  4.177253,  4.177034 )     0.37022795
  WF centre and spread   13  (  2.093300,  2.093567,  2.084492 )     1.25612844
  WF centre and spread   14  (  2.090053,  2.091696,  2.091439 )     1.25749731
  WF centre and spread   15  (  2.093334,  2.087622,  2.093567 )     1.26589178
  WF centre and spread   16  (  6.270764,  6.271022,  6.275337 )     1.25918681
  WF centre and spread   17  (  6.280475,  6.269362,  6.269105 )     1.30343410
  WF centre and spread   18  (  6.270284,  6.277127,  6.270463 )     1.29657521
  Sum of centres and spreads ( 50.512481, 50.335608, 50.236976 )    26.67870225

      3    -0.333E+00     2.9886510630       26.6787022474       0.64  <-- CONV
        O_D=      2.3539015 O_OD=      9.7580600 O_TOT=     26.6787022 <-- SPRD
 Delta: O_D= -0.4092216E+00 O_OD=  0.7577513E-01 O_TOT= -0.3334465E+00 <-- DLTA
 ------------------------------------------------------------------------------
 Cycle:      4
  WF centre and spread    1  (  0.177345,  0.105159,  0.047904 )     6.86143511
  WF centre and spread    2  (  0.000077,  0.000038,  0.000308 )     0.39804651
  WF centre and spread    3  ( -0.000122, -0.000022, -0.000161 )     0.35036143
  WF centre and spread    4  ( -0.000096, -0.000219, -0.000263 )     0.35018578
  WF centre and spread    5  (  0.000267,  0.000290, -0.000059 )     0.39780481
  WF centre and spread    6  ( -0.000129, -0.000041, -0.000003 )     0.34986057
  WF centre and spread    7  (  4.348697,  4.271958,  4.135031 )     8.22310516
  WF centre and spread    8  (  4.176912,  4.176940,  4.176438 )     0.36352155
  WF centre and spread    9  (  4.177322,  4.177045,  4.177180 )     0.37080792
  WF centre and spread   10  (  4.177031,  4.177270,  4.177299 )     0.37048583
  WF centre and spread   11  (  4.176688,  4.176642,  4.177084 )     0.36302341
  WF centre and spread   12  (  4.177249,  4.177351,  4.177053 )     0.37049520
  WF centre and spread   13  (  2.093205,  2.093534,  2.083779 )     1.25856729
  WF centre and spread   14  (  2.090330,  2.091644,  2.091228 )     1.24826286
  WF centre and spread   15  (  2.093181,  2.087830,  2.093354 )     1.26191639
  WF centre and spread   16  (  6.270849,  6.271152,  6.275074 )     1.25962986
  WF centre and spread   17  (  6.281081,  6.269547,  6.269242 )     1.30789004
  WF centre and spread   18  (  6.270205,  6.277376,  6.270366 )     1.29945078
  Sum of centres and spreads ( 50.510094, 50.353494, 50.150852 )    26.40485052

      4    -0.274E+00     1.4315931330       26.4048505193       0.75  <-- CONV
        O_D=      2.0734950 O_OD=      9.7646147 O_TOT=     26.4048505 <-- SPRD
 Delta: O_D= -0.2804065E+00 O_OD=  0.6554791E-02 O_TOT= -0.2738517E+00 <-- DLTA
 ------------------------------------------------------------------------------
 Cycle:      5
  WF centre and spread    1  (  0.162921,  0.111805,  0.066708 )     6.82724583
  WF centre and spread    2  (  0.000096,  0.000055,  0.000390 )     0.39765062
  WF centre and spread    3  ( -0.000149, -0.000021, -0.000190 )     0.35109497
  WF centre and spread    4  ( -0.000128, -0.000289, -0.000330 )     0.35077451
  WF centre and spread    5  (  0.000320,  0.000353, -0.000068 )     0.39751974
  WF centre and spread    6  ( -0.000146, -0.000018,  0.000016 )     0.35034252
  WF centre and spread    7  (  4.320024,  4.273339,  4.136980 )     7.99810003
  WF centre and spread    8  (  4.176874,  4.176921,  4.176326 )     0.36352390
  WF centre and spread    9  (  4.177407,  4.177050,  4.177223 )     0.37146725
  WF centre and spread   10  (  4.177032,  4.177334,  4.177394 )     0.37101904
  WF centre and spread   11  (  4.176604,  4.176558,  4.177091 )     0.36305484
  WF centre and spread   12  (  4.177316,  4.177471,  4.177078 )     0.37100598
  WF centre and spread   13  (  2.093294,  2.093634,  2.083351 )     1.26043738
  WF centre and spread   14  (  2.090527,  2.091737,  2.091259 )     1.23938095
  WF centre and spread   15  (  2.093084,  2.088172,  2.093194 )     1.25835872
  WF centre and spread   16  (  6.271146,  6.271417,  6.275278 )     1.26308300
  WF centre and spread   17  (  6.281714,  6.269890,  6.269661 )     1.31378086
  WF centre and spread   18  (  6.270275,  6.277926,  6.270421 )     1.30190643
  Sum of centres and spreads ( 50.468212, 50.363333, 50.171782 )    26.14974656

      5    -0.255E+00     2.0010013271       26.1497465620       0.86  <-- CONV
        O_D=      1.7955075 O_OD=      9.7874982 O_TOT=     26.1497466 <-- SPRD
 Delta: O_D= -0.2779874E+00 O_OD=  0.2288348E-01 O_TOT= -0.2551040E+00 <-- DLTA
 ------------------------------------------------------------------------------
 Cycle:      6
  WF centre and spread    1  (  0.160947,  0.126445,  0.063775 )     6.74010460
  WF centre and spread    2  (  0.000115,  0.000073,  0.000455 )     0.39726648
  WF centre and spread    3  ( -0.000158, -0.000012, -0.000213 )     0.35198898
  WF centre and spread    4  ( -0.000153, -0.000346, -0.000383 )     0.35152973
  WF centre and spread    5  (  0.000368,  0.000405, -0.000077 )     0.39721255
  WF centre and spread    6  ( -0.000145,  0.000012,  0.000040 )     0.35102483
  WF centre and spread    7  (  4.304520,  4.271971,  4.158144 )     7.81112346
  WF centre and spread    8  (  4.176848,  4.176905,  4.176233 )     0.36365055
  WF centre and spread    9  (  4.177488,  4.177057,  4.177262 )     0.37226759
  WF centre and spread   10  (  4.177031,  4.177391,  4.177466 )     0.37180278
  WF centre and spread   11  (  4.176555,  4.176507,  4.177095 )     0.36329957
  WF centre and spread   12  (  4.177387,  4.177579,  4.177102 )     0.37164719
  WF centre and spread   13  (  2.093541,  2.093844,  2.082972 )     1.26185864
  WF centre and spread   14  (  2.090738,  2.091758,  2.091256 )     1.23436522
  WF centre and spread   15  (  2.092960,  2.088336,  2.093031 )     1.25446605
  WF centre and spread   16  (  6.271363,  6.271592,  6.275326 )     1.26746466
  WF centre and spread   17  (  6.282387,  6.270077,  6.269887 )     1.31846038
  WF centre and spread   18  (  6.270366,  6.278485,  6.270490 )     1.30246371
  Sum of centres and spreads ( 50.452157, 50.378078, 50.189863 )    25.88199697

      6    -0.268E+00     2.0109096260       25.8819969690       0.96  <-- CONV
        O_D=      1.5087386 O_OD=      9.8065176 O_TOT=     25.8819970 <-- SPRD
 Delta: O_D= -0.2867690E+00 O_OD=  0.1901939E-01 O_TOT= -0.2677496E+00 <-- DLTA
 ------------------------------------------------------------------------------
 Cycle:      7
  WF centre and spread    1  (  0.197990,  0.115082,  0.046394 )     6.71906669
  WF centre and spread    2  (  0.000116,  0.000075,  0.000434 )     0.39598035
  WF centre and spread    3  ( -0.000110,  0.000001, -0.000217 )     0.35137159
  WF centre and spread    4  ( -0.000153, -0.000346, -0.000395 )     0.35116859
  WF centre and spread    5  (  0.000368,  0.000400, -0.000072 )     0.39585490
  WF centre and spread    6  ( -0.000082,  0.000028,  0.000065 )     0.35075565
  WF centre and spread    7  (  4.349723,  4.251998,  4.141734 )     7.76444958
  WF centre and spread    8  (  4.176856,  4.176909,  4.176239 )     0.36246492
  WF centre and spread    9  (  4.177535,  4.177060,  4.177260 )     0.37170650
  WF centre and spread   10  (  4.177016,  4.177404,  4.177427 )     0.37146266
  WF centre and spread   11  (  4.176581,  4.176530,  4.177082 )     0.36228091
  WF centre and spread   12  (  4.177456,  4.177589,  4.177115 )     0.37128713
  WF centre and spread   13  (  2.093633,  2.093890,  2.082580 )     1.22989464
  WF centre and spread   14  (  2.091342,  2.091613,  2.091225 )     1.21147402
  WF centre and spread   15  (  2.092847,  2.088084,  2.092897 )     1.22432031
  WF centre and spread   16  (  6.271301,  6.271361,  6.274672 )     1.24585852
  WF centre and spread   17  (  6.283175,  6.270078,  6.269921 )     1.28222635
  WF centre and spread   18  (  6.270454,  6.278504,  6.270530 )     1.26912760
  Sum of centres and spreads ( 50.536049, 50.346260, 50.154891 )    25.63075091

      7    -0.251E+00     1.2731878682       25.6307509113       1.07  <-- CONV
        O_D=      1.4997478 O_OD=      9.5642623 O_TOT=     25.6307509 <-- SPRD
 Delta: O_D= -0.8990788E-02 O_OD= -0.2422553E+00 O_TOT= -0.2512461E+00 <-- DLTA
 ------------------------------------------------------------------------------
 Cycle:      8
  WF centre and spread    1  (  0.215294,  0.123112,  0.059804 )     6.71620988
  WF centre and spread    2  (  0.000116,  0.000075,  0.000425 )     0.39551288
  WF centre and spread    3  ( -0.000091,  0.000004, -0.000214 )     0.35122360
  WF centre and spread    4  ( -0.000152, -0.000341, -0.000390 )     0.35108835
  WF centre and spread    5  (  0.000368,  0.000395, -0.000071 )     0.39536829
  WF centre and spread    6  ( -0.000055,  0.000041,  0.000073 )     0.35070712
  WF centre and spread    7  (  4.380813,  4.269840,  4.168130 )     7.74430673
  WF centre and spread    8  (  4.176859,  4.176911,  4.176242 )     0.36207375
  WF centre and spread    9  (  4.177551,  4.177058,  4.177264 )     0.37154562
  WF centre and spread   10  (  4.177011,  4.177414,  4.177420 )     0.37137061
  WF centre and spread   11  (  4.176592,  4.176539,  4.177078 )     0.36194129
  WF centre and spread   12  (  4.177481,  4.177599,  4.177116 )     0.37120129
  WF centre and spread   13  (  2.093674,  2.093908,  2.082501 )     1.21884056
  WF centre and spread   14  (  2.091541,  2.091583,  2.091226 )     1.20345387
  WF centre and spread   15  (  2.092781,  2.088074,  2.092816 )     1.21413644
  WF centre and spread   16  (  6.271302,  6.271307,  6.274530 )     1.23874522
  WF centre and spread   17  (  6.283408,  6.270102,  6.269946 )     1.26990008
  WF centre and spread   18  (  6.270474,  6.278590,  6.270536 )     1.25775828
  Sum of centres and spreads ( 50.584968, 50.372215, 50.194432 )    25.54538388

      8    -0.854E-01     2.1214010589       25.5453838783       1.17  <-- CONV
        O_D=      1.4966566 O_OD=      9.4819864 O_TOT=     25.5453839 <-- SPRD
 Delta: O_D= -0.3091125E-02 O_OD= -0.8227591E-01 O_TOT= -0.8536703E-01 <-- DLTA
 ------------------------------------------------------------------------------
 Cycle:      9
  WF centre and spread    1  (  0.210445,  0.125836,  0.085200 )     6.73638528
  WF centre and spread    2  (  0.000112,  0.000075,  0.000398 )     0.39440279
  WF centre and spread    3  ( -0.000064,  0.000008, -0.000216 )     0.35116639
  WF centre and spread    4  ( -0.000142, -0.000327, -0.000374 )     0.35110532
  WF centre and spread    5  (  0.000360,  0.000380, -0.000069 )     0.39424536
  WF centre and spread    6  (  0.000002,  0.000077,  0.000096 )     0.35080556
  WF centre and spread    7  (  4.364805,  4.253227,  4.180611 )     7.66626836
  WF centre and spread    8  (  4.176864,  4.176915,  4.176249 )     0.36128633
  WF centre and spread    9  (  4.177572,  4.177052,  4.177269 )     0.37130541
  WF centre and spread   10  (  4.177004,  4.177438,  4.177407 )     0.37126362
  WF centre and spread   11  (  4.176616,  4.176567,  4.177065 )     0.36123042
  WF centre and spread   12  (  4.177527,  4.177627,  4.177120 )     0.37115469
  WF centre and spread   13  (  2.093736,  2.093920,  2.082187 )     1.19506673
  WF centre and spread   14  (  2.091661,  2.091491,  2.091167 )     1.18642750
  WF centre and spread   15  (  2.092532,  2.088110,  2.092501 )     1.19297907
  WF centre and spread   16  (  6.271307,  6.271201,  6.274131 )     1.22472581
  WF centre and spread   17  (  6.283531,  6.270173,  6.269981 )     1.24333075
  WF centre and spread   18  (  6.270465,  6.278834,  6.270492 )     1.23311745
  Sum of centres and spreads ( 50.564333, 50.358605, 50.231215 )    25.35626684

      9    -0.189E+00     1.7748583707       25.3562668448       1.28  <-- CONV
        O_D=      1.4641786 O_OD=      9.3253474 O_TOT=     25.3562668 <-- SPRD
 Delta: O_D= -0.3247803E-01 O_OD= -0.1566390E+00 O_TOT= -0.1891170E+00 <-- DLTA
 ------------------------------------------------------------------------------
 Cycle:     10
  WF centre and spread    1  (  0.198417,  0.135829,  0.077245 )     6.75033898
  WF centre and spread    2  (  0.000110,  0.000076,  0.000372 )     0.39364430
  WF centre and spread    3  ( -0.000036,  0.000007, -0.000230 )     0.35152371
  WF centre and spread    4  ( -0.000133, -0.000308, -0.000366 )     0.35143780
  WF centre and spread    5  (  0.000348,  0.000361, -0.000068 )     0.39351042
  WF centre and spread    6  (  0.000062,  0.000126,  0.000120 )     0.35119982
  WF centre and spread    7  (  4.350702,  4.257560,  4.143416 )     7.62304128
  WF centre and spread    8  (  4.176874,  4.176920,  4.176260 )     0.36094478
  WF centre and spread    9  (  4.177595,  4.177042,  4.177260 )     0.37135609
  WF centre and spread   10  (  4.176995,  4.177467,  4.177386 )     0.37138100
  WF centre and spread   11  (  4.176637,  4.176596,  4.177052 )     0.36091044
  WF centre and spread   12  (  4.177567,  4.177663,  4.177123 )     0.37134894
  WF centre and spread   13  (  2.093724,  2.093866,  2.081673 )     1.18019178
  WF centre and spread   14  (  2.091716,  2.091336,  2.091008 )     1.17589204
  WF centre and spread   15  (  2.092275,  2.088203,  2.092158 )     1.17988519
  WF centre and spread   16  (  6.271270,  6.271071,  6.273590 )     1.21802540
  WF centre and spread   17  (  6.283635,  6.270209,  6.269964 )     1.22598955
  WF centre and spread   18  (  6.270393,  6.279073,  6.270352 )     1.21702630
  Sum of centres and spreads ( 50.538149, 50.373097, 50.184317 )    25.24764783

     10    -0.109E+00     2.0142669643       25.2476478285       1.39  <-- CONV
        O_D=      1.4432792 O_OD=      9.2376278 O_TOT=     25.2476478 <-- SPRD
 Delta: O_D= -0.2089943E-01 O_OD= -0.8771959E-01 O_TOT= -0.1086190E+00 <-- DLTA
 ------------------------------------------------------------------------------
 Cycle:     11
  WF centre and spread    1  (  0.206378,  0.163992,  0.042249 )     6.82698628
  WF centre and spread    2  (  0.000111,  0.000077,  0.000334 )     0.39300570
  WF centre and spread    3  (  0.000023,  0.000008, -0.000236 )     0.35277499
  WF centre and spread    4  ( -0.000121, -0.000267, -0.000346 )     0.35244862
  WF centre and spread    5  (  0.000313,  0.000320, -0.000067 )     0.39292831
  WF centre and spread    6  (  0.000171,  0.000216,  0.000161 )     0.35231759
  WF centre and spread    7  (  4.318292,  4.267038,  4.106187 )     7.53757208
  WF centre and spread    8  (  4.176895,  4.176931,  4.176295 )     0.36104251
  WF centre and spread    9  (  4.177633,  4.177021,  4.177233 )     0.37188838
  WF centre and spread   10  (  4.176976,  4.177506,  4.177350 )     0.37197217
  WF centre and spread   11  (  4.176674,  4.176644,  4.177037 )     0.36102461
  WF centre and spread   12  (  4.177635,  4.177722,  4.177128 )     0.37204529
  WF centre and spread   13  (  2.093655,  2.093730,  2.080895 )     1.16858702
  WF centre and spread   14  (  2.091861,  2.091080,  2.090729 )     1.16761404
  WF centre and spread   15  (  2.091945,  2.088342,  2.091704 )     1.16935988
  WF centre and spread   16  (  6.271232,  6.270927,  6.272883 )     1.21694677
  WF centre and spread   17  (  6.283959,  6.270311,  6.269994 )     1.21006024
  WF centre and spread   18  (  6.270327,  6.279389,  6.270214 )     1.20207970
  Sum of centres and spreads ( 50.513960, 50.410987, 50.109745 )    25.18065417

     11    -0.670E-01     3.0583991655       25.1806541732       1.49  <-- CONV
        O_D=      1.4255879 O_OD=      9.1883255 O_TOT=     25.1806542 <-- SPRD
 Delta: O_D= -0.1769131E-01 O_OD= -0.4930234E-01 O_TOT= -0.6699366E-01 <-- DLTA
 ------------------------------------------------------------------------------
 Cycle:     12
  WF centre and spread    1  (  0.210981,  0.168222,  0.040019 )     6.83492614
  WF centre and spread    2  (  0.000111,  0.000078,  0.000330 )     0.39297016
  WF centre and spread    3  (  0.000032,  0.000008, -0.000236 )     0.35297602
  WF centre and spread    4  ( -0.000119, -0.000262, -0.000343 )     0.35261437
  WF centre and spread    5  (  0.000309,  0.000314, -0.000067 )     0.39289695
  WF centre and spread    6  (  0.000186,  0.000227,  0.000166 )     0.35249224
  WF centre and spread    7  (  4.317173,  4.266337,  4.102005 )     7.52114743
  WF centre and spread    8  (  4.176898,  4.176933,  4.176300 )     0.36110268
  WF centre and spread    9  (  4.177639,  4.177019,  4.177229 )     0.37198922
  WF centre and spread   10  (  4.176973,  4.177511,  4.177347 )     0.37207715
  WF centre and spread   11  (  4.176678,  4.176649,  4.177035 )     0.36108834
  WF centre and spread   12  (  4.177645,  4.177729,  4.177129 )     0.37216032
  WF centre and spread   13  (  2.093649,  2.093710,  2.080810 )     1.16796642
  WF centre and spread   14  (  2.091890,  2.091050,  2.090699 )     1.16731942
  WF centre and spread   15  (  2.091915,  2.088362,  2.091660 )     1.16883189
  WF centre and spread   16  (  6.271236,  6.270917,  6.272814 )     1.21761825
  WF centre and spread   17  (  6.284016,  6.270329,  6.270006 )     1.20892997
  WF centre and spread   18  (  6.270328,  6.279420,  6.270203 )     1.20107821
  Sum of centres and spreads ( 50.517540, 50.414552, 50.103108 )    25.17018516

     12    -0.105E-01     4.2479620219       25.1701851638       1.60  <-- CONV
        O_D=      1.4142550 O_OD=      9.1891894 O_TOT=     25.1701852 <-- SPRD
 Delta: O_D= -0.1133290E-01 O_OD=  0.8638948E-03 O_TOT= -0.1046901E-01 <-- DLTA
 ------------------------------------------------------------------------------
 Cycle:     13
  WF centre and spread    1  (  0.227890,  0.170395,  0.047818 )     6.81030933
  WF centre and spread    2  (  0.000112,  0.000077,  0.000331 )     0.39297403
  WF centre and spread    3  (  0.000041,  0.000009, -0.000235 )     0.35302813
  WF centre and spread    4  ( -0.000121, -0.000262, -0.000340 )     0.35269515
  WF centre and spread    5  (  0.000306,  0.000312, -0.000067 )     0.39289337
  WF centre and spread    6  (  0.000194,  0.000225,  0.000167 )     0.35252442
  WF centre and spread    7  (  4.351790,  4.255247,  4.104635 )     7.38500108
  WF centre and spread    8  (  4.176900,  4.176933,  4.176304 )     0.36112929
  WF centre and spread    9  (  4.177649,  4.177019,  4.177224 )     0.37201024
  WF centre and spread   10  (  4.176971,  4.177508,  4.177351 )     0.37210018
  WF centre and spread   11  (  4.176679,  4.176647,  4.177036 )     0.36111056
  WF centre and spread   12  (  4.177656,  4.177725,  4.177129 )     0.37218361
  WF centre and spread   13  (  2.093670,  2.093701,  2.080864 )     1.16884028
  WF centre and spread   14  (  2.091980,  2.091060,  2.090726 )     1.16844623
  WF centre and spread   15  (  2.091942,  2.088380,  2.091689 )     1.16998899
  WF centre and spread   16  (  6.271280,  6.270952,  6.272907 )     1.21866538
  WF centre and spread   17  (  6.284124,  6.270352,  6.270050 )     1.20980017
  WF centre and spread   18  (  6.270378,  6.279380,  6.270224 )     1.20263004
  Sum of centres and spreads ( 50.569442, 50.405661, 50.113812 )    25.01633051

     13    -0.154E+00     4.2793283247       25.0163305055       1.70  <-- CONV
        O_D=      1.2559214 O_OD=      9.1936683 O_TOT=     25.0163305 <-- SPRD
 Delta: O_D= -0.1583336E+00 O_OD=  0.4478907E-02 O_TOT= -0.1538547E+00 <-- DLTA
 ------------------------------------------------------------------------------
 Cycle:     14
  WF centre and spread    1  (  0.224118,  0.156235,  0.033725 )     6.74753544
  WF centre and spread    2  (  0.000113,  0.000076,  0.000332 )     0.39297737
  WF centre and spread    3  (  0.000051,  0.000009, -0.000235 )     0.35313758
  WF centre and spread    4  ( -0.000122, -0.000261, -0.000335 )     0.35282211
  WF centre and spread    5  (  0.000299,  0.000306, -0.000068 )     0.39289178
  WF centre and spread    6  (  0.000206,  0.000227,  0.000170 )     0.35260175
  WF centre and spread    7  (  4.366882,  4.253934,  4.103948 )     7.32135428
  WF centre and spread    8  (  4.176904,  4.176933,  4.176312 )     0.36119115
  WF centre and spread    9  (  4.177655,  4.177017,  4.177215 )     0.37205743
  WF centre and spread   10  (  4.176968,  4.177504,  4.177354 )     0.37215789
  WF centre and spread   11  (  4.176677,  4.176644,  4.177038 )     0.36116043
  WF centre and spread   12  (  4.177664,  4.177722,  4.177131 )     0.37224616
  WF centre and spread   13  (  2.093669,  2.093670,  2.080894 )     1.17015688
  WF centre and spread   14  (  2.092055,  2.091082,  2.090769 )     1.16974960
  WF centre and spread   15  (  2.091984,  2.088398,  2.091732 )     1.17123285
  WF centre and spread   16  (  6.271338,  6.271012,  6.273077 )     1.21998347
  WF centre and spread   17  (  6.284223,  6.270376,  6.270097 )     1.21083768
  WF centre and spread   18  (  6.270446,  6.279385,  6.270271 )     1.20490601
  Sum of centres and spreads ( 50.581130, 50.390270, 50.099429 )    24.89899984

     14    -0.117E+00     2.4708140903       24.8989998350       1.81  <-- CONV
        O_D=      1.1337221 O_OD=      9.1985370 O_TOT=     24.8989998 <-- SPRD
 Delta: O_D= -0.1221993E+00 O_OD=  0.4868660E-02 O_TOT= -0.1173307E+00 <-- DLTA
 ------------------------------------------------------------------------------
 Cycle:     15
  WF centre and spread    1  (  0.228376,  0.157198,  0.032453 )     6.65957627
  WF centre and spread    2  (  0.000117,  0.000070,  0.000337 )     0.39298601
  WF centre and spread    3  (  0.000076,  0.000006, -0.000214 )     0.35351245
  WF centre and spread    4  ( -0.000132, -0.000255, -0.000318 )     0.35320975
  WF centre and spread    5  (  0.000272,  0.000281, -0.000070 )     0.39291148
  WF centre and spread    6  (  0.000245,  0.000246,  0.000178 )     0.35287939
  WF centre and spread    7  (  4.386046,  4.279336,  4.116743 )     7.20316562
  WF centre and spread    8  (  4.176917,  4.176934,  4.176350 )     0.36143577
  WF centre and spread    9  (  4.177662,  4.177005,  4.177207 )     0.37222421
  WF centre and spread   10  (  4.176957,  4.177496,  4.177369 )     0.37237791
  WF centre and spread   11  (  4.176675,  4.176636,  4.177046 )     0.36131603
  WF centre and spread   12  (  4.177683,  4.177730,  4.177134 )     0.37247539
  WF centre and spread   13  (  2.093572,  2.093543,  2.081013 )     1.17377109
  WF centre and spread   14  (  2.092239,  2.091124,  2.090832 )     1.17227727
  WF centre and spread   15  (  2.092019,  2.088357,  2.091762 )     1.17446939
  WF centre and spread   16  (  6.271462,  6.271174,  6.273703 )     1.22305719
  WF centre and spread   17  (  6.284463,  6.270358,  6.270136 )     1.21293754
  WF centre and spread   18  (  6.270516,  6.279414,  6.270335 )     1.21039493
  Sum of centres and spreads ( 50.605164, 50.416651, 50.111997 )    24.71497769

     15    -0.184E+00     1.8357155737       24.7149776915       1.92  <-- CONV
        O_D=      0.9448379 O_OD=      9.2033990 O_TOT=     24.7149777 <-- SPRD
 Delta: O_D= -0.1888842E+00 O_OD=  0.4862044E-02 O_TOT= -0.1840221E+00 <-- DLTA
 ------------------------------------------------------------------------------
 Cycle:     16
  WF centre and spread    1  (  0.208888,  0.133027,  0.028376 )     6.63879883
  WF centre and spread    2  (  0.000121,  0.000060,  0.000329 )     0.39296301
  WF centre and spread    3  (  0.000099,  0.000005, -0.000177 )     0.35392826
  WF centre and spread    4  ( -0.000138, -0.000251, -0.000290 )     0.35370283
  WF centre and spread    5  (  0.000231,  0.000243, -0.000073 )     0.39292071
  WF centre and spread    6  (  0.000288,  0.000266,  0.000185 )     0.35326644
  WF centre and spread    7  (  4.381930,  4.267483,  4.131724 )     7.08693099
  WF centre and spread    8  (  4.176934,  4.176934,  4.176403 )     0.36176501
  WF centre and spread    9  (  4.177649,  4.176990,  4.177198 )     0.37247341
  WF centre and spread   10  (  4.176946,  4.177471,  4.177384 )     0.37268948
  WF centre and spread   11  (  4.176684,  4.176638,  4.177047 )     0.36148773
  WF centre and spread   12  (  4.177694,  4.177729,  4.177134 )     0.37279269
  WF centre and spread   13  (  2.093431,  2.093406,  2.081149 )     1.17729581
  WF centre and spread   14  (  2.092402,  2.091223,  2.090908 )     1.17378076
  WF centre and spread   15  (  2.091991,  2.088214,  2.091730 )     1.17720701
  WF centre and spread   16  (  6.271564,  6.271343,  6.274336 )     1.22519547
  WF centre and spread   17  (  6.284681,  6.270314,  6.270147 )     1.21327639
  WF centre and spread   18  (  6.270505,  6.279376,  6.270362 )     1.21518776
  Sum of centres and spreads ( 50.581900, 50.380471, 50.123873 )    24.59566258

     16    -0.119E+00     1.6298104507       24.5956625755       2.02  <-- CONV
        O_D=      0.8147398 O_OD=      9.2141820 O_TOT=     24.5956626 <-- SPRD
 Delta: O_D= -0.1300981E+00 O_OD=  0.1078299E-01 O_TOT= -0.1193151E+00 <-- DLTA
 ------------------------------------------------------------------------------
 Cycle:     17
  WF centre and spread    1  (  0.200025,  0.132827,  0.032946 )     6.63667868
  WF centre and spread    2  (  0.000121,  0.000052,  0.000314 )     0.39287120
  WF centre and spread    3  (  0.000116,  0.000003, -0.000150 )     0.35410633
  WF centre and spread    4  ( -0.000138, -0.000236, -0.000267 )     0.35400328
  WF centre and spread    5  (  0.000199,  0.000213, -0.000075 )     0.39286949
  WF centre and spread    6  (  0.000321,  0.000288,  0.000189 )     0.35351407
  WF centre and spread    7  (  4.384950,  4.267257,  4.146877 )     7.03554861
  WF centre and spread    8  (  4.176946,  4.176935,  4.176442 )     0.36193916
  WF centre and spread    9  (  4.177634,  4.176979,  4.177191 )     0.37262768
  WF centre and spread   10  (  4.176941,  4.177457,  4.177390 )     0.37287424
  WF centre and spread   11  (  4.176696,  4.176647,  4.177044 )     0.36155086
  WF centre and spread   12  (  4.177699,  4.177729,  4.177133 )     0.37299908
  WF centre and spread   13  (  2.093338,  2.093321,  2.081193 )     1.17800427
  WF centre and spread   14  (  2.092570,  2.091343,  2.091011 )     1.17264450
  WF centre and spread   15  (  2.091980,  2.088200,  2.091722 )     1.17725177
  WF centre and spread   16  (  6.271603,  6.271434,  6.274657 )     1.22457756
  WF centre and spread   17  (  6.284805,  6.270272,  6.270134 )     1.21081411
  WF centre and spread   18  (  6.270503,  6.279468,  6.270406 )     1.21622501
  Sum of centres and spreads ( 50.576310, 50.380191, 50.144159 )    24.54109991

     17    -0.546E-01     1.4242676489       24.5410999093       2.13  <-- CONV
        O_D=      0.7635887 O_OD=      9.2107704 O_TOT=     24.5410999 <-- SPRD
 Delta: O_D= -0.5115106E-01 O_OD= -0.3411608E-02 O_TOT= -0.5456267E-01 <-- DLTA
 ------------------------------------------------------------------------------
 Cycle:     18
  WF centre and spread    1  (  0.186819,  0.142548,  0.039162 )     6.63298419
  WF centre and spread    2  (  0.000120,  0.000045,  0.000294 )     0.39270428
  WF centre and spread    3  (  0.000134,  0.000001, -0.000124 )     0.35417113
  WF centre and spread    4  ( -0.000135, -0.000212, -0.000241 )     0.35423563
  WF centre and spread    5  (  0.000168,  0.000182, -0.000076 )     0.39275711
  WF centre and spread    6  (  0.000351,  0.000315,  0.000193 )     0.35371095
  WF centre and spread    7  (  4.377924,  4.279888,  4.160060 )     7.01318702
  WF centre and spread    8  (  4.176958,  4.176936,  4.176481 )     0.36203672
  WF centre and spread    9  (  4.177620,  4.176968,  4.177184 )     0.37275291
  WF centre and spread   10  (  4.176935,  4.177448,  4.177390 )     0.37301742
  WF centre and spread   11  (  4.176714,  4.176662,  4.177038 )     0.36154399
  WF centre and spread   12  (  4.177701,  4.177734,  4.177132 )     0.37317374
  WF centre and spread   13  (  2.093254,  2.093245,  2.081203 )     1.17675487
  WF centre and spread   14  (  2.092740,  2.091465,  2.091120 )     1.16952432
  WF centre and spread   15  (  2.091980,  2.088249,  2.091724 )     1.17573799
  WF centre and spread   16  (  6.271625,  6.271507,  6.274897 )     1.22210744
  WF centre and spread   17  (  6.284857,  6.270205,  6.270079 )     1.20592689
  WF centre and spread   18  (  6.270508,  6.279633,  6.270455 )     1.21461490
  Sum of centres and spreads ( 50.556275, 50.402820, 50.163970 )    24.50094149

     18    -0.402E-01     1.3638422841       24.5009414897       2.23  <-- CONV
        O_D=      0.7389284 O_OD=      9.1952723 O_TOT=     24.5009415 <-- SPRD
 Delta: O_D= -0.2466029E-01 O_OD= -0.1549813E-01 O_TOT= -0.4015842E-01 <-- DLTA
 ------------------------------------------------------------------------------
 Cycle:     19
  WF centre and spread    1  (  0.189628,  0.138772,  0.037038 )     6.62854712
  WF centre and spread    2  (  0.000119,  0.000045,  0.000288 )     0.39263164
  WF centre and spread    3  (  0.000138,  0.000001, -0.000124 )     0.35412039
  WF centre and spread    4  ( -0.000134, -0.000208, -0.000238 )     0.35420753
  WF centre and spread    5  (  0.000164,  0.000178, -0.000076 )     0.39269497
  WF centre and spread    6  (  0.000357,  0.000318,  0.000193 )     0.35369359
  WF centre and spread    7  (  4.374617,  4.274494,  4.151487 )     6.99366760
  WF centre and spread    8  (  4.176960,  4.176938,  4.176485 )     0.36198551
  WF centre and spread    9  (  4.177621,  4.176968,  4.177181 )     0.37274588
  WF centre and spread   10  (  4.176933,  4.177446,  4.177383 )     0.37300063
  WF centre and spread   11  (  4.176719,  4.176668,  4.177037 )     0.36149844
  WF centre and spread   12  (  4.177704,  4.177733,  4.177131 )     0.37316476
  WF centre and spread   13  (  2.093245,  2.093233,  2.081160 )     1.17549829
  WF centre and spread   14  (  2.092751,  2.091457,  2.091115 )     1.16796912
  WF centre and spread   15  (  2.091977,  2.088254,  2.091718 )     1.17451009
  WF centre and spread   16  (  6.271608,  6.271490,  6.274848 )     1.22061436
  WF centre and spread   17  (  6.284832,  6.270174,  6.270042 )     1.20407866
  WF centre and spread   18  (  6.270499,  6.279652,  6.270442 )     1.21266758
  Sum of centres and spreads ( 50.555736, 50.393613, 50.153110 )    24.46729616

     19    -0.336E-01     1.5300710297       24.4672961567       2.34  <-- CONV
        O_D=      0.7159106 O_OD=      9.1846448 O_TOT=     24.4672962 <-- SPRD
 Delta: O_D= -0.2301785E-01 O_OD= -0.1062748E-01 O_TOT= -0.3364533E-01 <-- DLTA
 ------------------------------------------------------------------------------
 Cycle:     20
  WF centre and spread    1  (  0.209542,  0.139208,  0.036476 )     6.61943156
  WF centre and spread    2  (  0.000112,  0.000046,  0.000265 )     0.39229902
  WF centre and spread    3  (  0.000160, -0.000000, -0.000119 )     0.35388873
  WF centre and spread    4  ( -0.000130, -0.000180, -0.000218 )     0.35408972
  WF centre and spread    5  (  0.000145,  0.000157, -0.000073 )     0.39240599
  WF centre and spread    6  (  0.000383,  0.000338,  0.000194 )     0.35362308
  WF centre and spread    7  (  4.387519,  4.276821,  4.145178 )     6.97365530
  WF centre and spread    8  (  4.176965,  4.176943,  4.176507 )     0.36175718
  WF centre and spread    9  (  4.177628,  4.176968,  4.177171 )     0.37271609
  WF centre and spread   10  (  4.176925,  4.177443,  4.177357 )     0.37293030
  WF centre and spread   11  (  4.176742,  4.176694,  4.177031 )     0.36128922
  WF centre and spread   12  (  4.177718,  4.177734,  4.177130 )     0.37312878
  WF centre and spread   13  (  2.093209,  2.093178,  2.081008 )     1.16958868
  WF centre and spread   14  (  2.092826,  2.091427,  2.091109 )     1.16041701
  WF centre and spread   15  (  2.091954,  2.088315,  2.091689 )     1.16863722
  WF centre and spread   16  (  6.271528,  6.271416,  6.274676 )     1.21340696
  WF centre and spread   17  (  6.284743,  6.270035,  6.269885 )     1.19543768
  WF centre and spread   18  (  6.270445,  6.279776,  6.270380 )     1.20375158
  Sum of centres and spreads ( 50.588413, 50.396320, 50.145647 )    24.39245412

     20    -0.748E-01     1.2822585086       24.3924541227       2.45  <-- CONV
        O_D=      0.6925163 O_OD=      9.1331970 O_TOT=     24.3924541 <-- SPRD
 Delta: O_D= -0.2339429E-01 O_OD= -0.5144774E-01 O_TOT= -0.7484203E-01 <-- DLTA
 ------------------------------------------------------------------------------
 Cycle:     21
  WF centre and spread    1  (  0.230044,  0.155073,  0.032589 )     6.63234380
  WF centre and spread    2  (  0.000099,  0.000047,  0.000221 )     0.39173312
  WF centre and spread    3  (  0.000191, -0.000004, -0.000110 )     0.35353265
  WF centre and spread    4  ( -0.000119, -0.000122, -0.000182 )     0.35396334
  WF centre and spread    5  (  0.000109,  0.000120, -0.000069 )     0.39190221
  WF centre and spread    6  (  0.000419,  0.000381,  0.000197 )     0.35356316
  WF centre and spread    7  (  4.374612,  4.281165,  4.142485 )     6.99125803
  WF centre and spread    8  (  4.176974,  4.176952,  4.176550 )     0.36140145
  WF centre and spread    9  (  4.177627,  4.176965,  4.177153 )     0.37271326
  WF centre and spread   10  (  4.176913,  4.177437,  4.177312 )     0.37285825
  WF centre and spread   11  (  4.176783,  4.176742,  4.177019 )     0.36093685
  WF centre and spread   12  (  4.177732,  4.177738,  4.177130 )     0.37311646
  WF centre and spread   13  (  2.093127,  2.093071,  2.080735 )     1.15970367
  WF centre and spread   14  (  2.092854,  2.091400,  2.091124 )     1.14714677
  WF centre and spread   15  (  2.091913,  2.088525,  2.091660 )     1.15857835
  WF centre and spread   16  (  6.271368,  6.271284,  6.274389 )     1.20075053
  WF centre and spread   17  (  6.284490,  6.269792,  6.269629 )     1.18069709
  WF centre and spread   18  (  6.270311,  6.280040,  6.270262 )     1.18893065
  Sum of centres and spreads ( 50.595446, 50.416606, 50.138094 )    24.34512963

     21    -0.473E-01     1.4552651086       24.3451296340       2.56  <-- CONV
        O_D=      0.7262849 O_OD=      9.0521039 O_TOT=     24.3451296 <-- SPRD
 Delta: O_D=  0.3376863E-01 O_OD= -0.8109312E-01 O_TOT= -0.4732449E-01 <-- DLTA
 ------------------------------------------------------------------------------
 Cycle:     22
  WF centre and spread    1  (  0.223993,  0.153548,  0.033344 )     6.61751190
  WF centre and spread    2  (  0.000100,  0.000044,  0.000213 )     0.39179395
  WF centre and spread    3  (  0.000204, -0.000002, -0.000107 )     0.35363393
  WF centre and spread    4  ( -0.000118, -0.000118, -0.000180 )     0.35396168
  WF centre and spread    5  (  0.000106,  0.000116, -0.000070 )     0.39189804
  WF centre and spread    6  (  0.000431,  0.000387,  0.000199 )     0.35369456
  WF centre and spread    7  (  4.392855,  4.275444,  4.139137 )     6.93330701
  WF centre and spread    8  (  4.176976,  4.176951,  4.176555 )     0.36142782
  WF centre and spread    9  (  4.177623,  4.176962,  4.177146 )     0.37272733
  WF centre and spread   10  (  4.176914,  4.177435,  4.177312 )     0.37285844
  WF centre and spread   11  (  4.176791,  4.176747,  4.177016 )     0.36100106
  WF centre and spread   12  (  4.177727,  4.177732,  4.177127 )     0.37313862
  WF centre and spread   13  (  2.093156,  2.093113,  2.080762 )     1.15966210
  WF centre and spread   14  (  2.092973,  2.091449,  2.091165 )     1.14951819
  WF centre and spread   15  (  2.091937,  2.088557,  2.091689 )     1.15871906
  WF centre and spread   16  (  6.271406,  6.271317,  6.274355 )     1.20112980
  WF centre and spread   17  (  6.284699,  6.269865,  6.269693 )     1.18133177
  WF centre and spread   18  (  6.270343,  6.280077,  6.270289 )     1.18912318
  Sum of centres and spreads ( 50.608115, 50.409623, 50.135645 )    24.27643844

     22    -0.687E-01     3.9632297279       24.2764384412       2.66  <-- CONV
        O_D=      0.6530886 O_OD=      9.0566091 O_TOT=     24.2764384 <-- SPRD
 Delta: O_D= -0.7319632E-01 O_OD=  0.4505131E-02 O_TOT= -0.6869119E-01 <-- DLTA
 ------------------------------------------------------------------------------
 Cycle:     23
  WF centre and spread    1  (  0.205337,  0.148805,  0.035345 )     6.60476466
  WF centre and spread    2  (  0.000097,  0.000044,  0.000207 )     0.39169221
  WF centre and spread    3  (  0.000202, -0.000003, -0.000102 )     0.35359809
  WF centre and spread    4  ( -0.000113, -0.000104, -0.000170 )     0.35392942
  WF centre and spread    5  (  0.000098,  0.000109, -0.000070 )     0.39178527
  WF centre and spread    6  (  0.000431,  0.000400,  0.000199 )     0.35373493
  WF centre and spread    7  (  4.373059,  4.277571,  4.148442 )     6.92159031
  WF centre and spread    8  (  4.176977,  4.176953,  4.176564 )     0.36138538
  WF centre and spread    9  (  4.177613,  4.176960,  4.177147 )     0.37273979
  WF centre and spread   10  (  4.176913,  4.177431,  4.177309 )     0.37283807
  WF centre and spread   11  (  4.176794,  4.176753,  4.177014 )     0.36091165
  WF centre and spread   12  (  4.177719,  4.177735,  4.177125 )     0.37316593
  WF centre and spread   13  (  2.093134,  2.093101,  2.080770 )     1.15746258
  WF centre and spread   14  (  2.092840,  2.091443,  2.091157 )     1.14738312
  WF centre and spread   15  (  2.091930,  2.088665,  2.091695 )     1.15672601
  WF centre and spread   16  (  6.271390,  6.271302,  6.274350 )     1.19838743
  WF centre and spread   17  (  6.284627,  6.269858,  6.269697 )     1.17951043
  WF centre and spread   18  (  6.270258,  6.280113,  6.270213 )     1.18608221
  Sum of centres and spreads ( 50.569306, 50.407136, 50.146893 )    24.23768749

     23    -0.388E-01     1.1798979469       24.2376874883       2.77  <-- CONV
        O_D=      0.6287029 O_OD=      9.0422438 O_TOT=     24.2376875 <-- SPRD
 Delta: O_D= -0.2438569E-01 O_OD= -0.1436527E-01 O_TOT= -0.3875095E-01 <-- DLTA
 ------------------------------------------------------------------------------
 Cycle:     24
  WF centre and spread    1  (  0.190798,  0.149697,  0.039975 )     6.60715782
  WF centre and spread    2  (  0.000087,  0.000046,  0.000193 )     0.39138306
  WF centre and spread    3  (  0.000206, -0.000007, -0.000092 )     0.35344235
  WF centre and spread    4  ( -0.000106, -0.000065, -0.000151 )     0.35381693
  WF centre and spread    5  (  0.000079,  0.000091, -0.000069 )     0.39148469
  WF centre and spread    6  (  0.000439,  0.000436,  0.000199 )     0.35377165
  WF centre and spread    7  (  4.355958,  4.288454,  4.160000 )     6.91645149
  WF centre and spread    8  (  4.176979,  4.176957,  4.176590 )     0.36125994
  WF centre and spread    9  (  4.177605,  4.176956,  4.177148 )     0.37276159
  WF centre and spread   10  (  4.176908,  4.177425,  4.177296 )     0.37279128
  WF centre and spread   11  (  4.176803,  4.176771,  4.177011 )     0.36063968
  WF centre and spread   12  (  4.177714,  4.177744,  4.177124 )     0.37323203
  WF centre and spread   13  (  2.093049,  2.093029,  2.080722 )     1.15113289
  WF centre and spread   14  (  2.092579,  2.091398,  2.091127 )     1.13993271
  WF centre and spread   15  (  2.091899,  2.088910,  2.091691 )     1.15086796
  WF centre and spread   16  (  6.271308,  6.271217,  6.274303 )     1.19024681
  WF centre and spread   17  (  6.284470,  6.269777,  6.269663 )     1.17361919
  WF centre and spread   18  (  6.270005,  6.280170,  6.269980 )     1.17719131
  Sum of centres and spreads ( 50.536779, 50.419008, 50.162711 )    24.19118340

     24    -0.465E-01     1.2427320093       24.1911834016       2.87  <-- CONV
        O_D=      0.6296187 O_OD=      8.9948239 O_TOT=     24.1911834 <-- SPRD
 Delta: O_D=  0.9157799E-03 O_OD= -0.4741987E-01 O_TOT= -0.4650409E-01 <-- DLTA
 ------------------------------------------------------------------------------
 Cycle:     25
  WF centre and spread    1  (  0.189729,  0.152102,  0.035656 )     6.61024079
  WF centre and spread    2  (  0.000077,  0.000046,  0.000171 )     0.39098928
  WF centre and spread    3  (  0.000225, -0.000012, -0.000081 )     0.35323628
  WF centre and spread    4  ( -0.000102, -0.000020, -0.000133 )     0.35365716
  WF centre and spread    5  (  0.000054,  0.000067, -0.000067 )     0.39114616
  WF centre and spread    6  (  0.000460,  0.000475,  0.000200 )     0.35376838
  WF centre and spread    7  (  4.358071,  4.308747,  4.157573 )     6.93566150
  WF centre and spread    8  (  4.176983,  4.176963,  4.176624 )     0.36111550
  WF centre and spread    9  (  4.177605,  4.176951,  4.177138 )     0.37279489
  WF centre and spread   10  (  4.176900,  4.177419,  4.177274 )     0.37276656
  WF centre and spread   11  (  4.176819,  4.176796,  4.177005 )     0.36030549
  WF centre and spread   12  (  4.177717,  4.177753,  4.177125 )     0.37331453
  WF centre and spread   13  (  2.092940,  2.092927,  2.080589 )     1.14334176
  WF centre and spread   14  (  2.092440,  2.091369,  2.091117 )     1.13053368
  WF centre and spread   15  (  2.091887,  2.089161,  2.091694 )     1.14332851
  WF centre and spread   16  (  6.271199,  6.271104,  6.274217 )     1.18030473
  WF centre and spread   17  (  6.284395,  6.269651,  6.269594 )     1.16533447
  WF centre and spread   18  (  6.269732,  6.280216,  6.269728 )     1.16610783
  Sum of centres and spreads ( 50.537131, 50.441716, 50.155424 )    24.15794748

     25    -0.332E-01     1.5632231054       24.1579474836       2.98  <-- CONV
        O_D=      0.6567629 O_OD=      8.9344438 O_TOT=     24.1579475 <-- SPRD
 Delta: O_D=  0.2714420E-01 O_OD= -0.6038012E-01 O_TOT= -0.3323592E-01 <-- DLTA
 ------------------------------------------------------------------------------
 Cycle:     26
  WF centre and spread    1  (  0.189882,  0.152262,  0.034839 )     6.61053993
  WF centre and spread    2  (  0.000076,  0.000046,  0.000168 )     0.39094575
  WF centre and spread    3  (  0.000228, -0.000012, -0.000080 )     0.35321737
  WF centre and spread    4  ( -0.000101, -0.000016, -0.000131 )     0.35364363
  WF centre and spread    5  (  0.000050,  0.000065, -0.000067 )     0.39111424
  WF centre and spread    6  (  0.000463,  0.000479,  0.000200 )     0.35376727
  WF centre and spread    7  (  4.359203,  4.310141,  4.157884 )     6.93596694
  WF centre and spread    8  (  4.176984,  4.176963,  4.176628 )     0.36110335
  WF centre and spread    9  (  4.177605,  4.176950,  4.177136 )     0.37280100
  WF centre and spread   10  (  4.176899,  4.177419,  4.177271 )     0.37276744
  WF centre and spread   11  (  4.176822,  4.176799,  4.177004 )     0.36027043
  WF centre and spread   12  (  4.177717,  4.177753,  4.177125 )     0.37332419
  WF centre and spread   13  (  2.092927,  2.092915,  2.080572 )     1.14255967
  WF centre and spread   14  (  2.092434,  2.091368,  2.091117 )     1.12954776
  WF centre and spread   15  (  2.091887,  2.089185,  2.091695 )     1.14249827
  WF centre and spread   16  (  6.271188,  6.271092,  6.274211 )     1.17928260
  WF centre and spread   17  (  6.284392,  6.269636,  6.269585 )     1.16437783
  WF centre and spread   18  (  6.269705,  6.280219,  6.269704 )     1.16493541
  Sum of centres and spreads ( 50.538361, 50.443264, 50.154862 )    24.15266308

     26    -0.528E-02     2.6312227077       24.1526630765       3.09  <-- CONV
        O_D=      0.6577609 O_OD=      8.9281614 O_TOT=     24.1526631 <-- SPRD
 Delta: O_D=  0.9980132E-03 O_OD= -0.6282420E-02 O_TOT= -0.5284407E-02 <-- DLTA
 ------------------------------------------------------------------------------
 Cycle:     27
  WF centre and spread    1  (  0.191234,  0.152799,  0.031027 )     6.60790010
  WF centre and spread    2  (  0.000073,  0.000045,  0.000158 )     0.39082201
  WF centre and spread    3  (  0.000237, -0.000013, -0.000075 )     0.35317347
  WF centre and spread    4  ( -0.000100, -0.000003, -0.000124 )     0.35361498
  WF centre and spread    5  (  0.000041,  0.000056, -0.000066 )     0.39103749
  WF centre and spread    6  (  0.000473,  0.000489,  0.000200 )     0.35375967
  WF centre and spread    7  (  4.367017,  4.307812,  4.164856 )     6.93329942
  WF centre and spread    8  (  4.176987,  4.176965,  4.176640 )     0.36107724
  WF centre and spread    9  (  4.177605,  4.176949,  4.177130 )     0.37282237
  WF centre and spread   10  (  4.176897,  4.177416,  4.177263 )     0.37277643
  WF centre and spread   11  (  4.176829,  4.176808,  4.177002 )     0.36017461
  WF centre and spread   12  (  4.177720,  4.177755,  4.177125 )     0.37335060
  WF centre and spread   13  (  2.092891,  2.092881,  2.080519 )     1.14056508
  WF centre and spread   14  (  2.092435,  2.091367,  2.091118 )     1.12689380
  WF centre and spread   15  (  2.091887,  2.089236,  2.091694 )     1.14016599
  WF centre and spread   16  (  6.271157,  6.271061,  6.274201 )     1.17659779
  WF centre and spread   17  (  6.284395,  6.269592,  6.269560 )     1.16160709
  WF centre and spread   18  (  6.269638,  6.280218,  6.269647 )     1.16176647
  Sum of centres and spreads ( 50.547416, 50.441432, 50.157876 )    24.13140462

     27    -0.213E-01     2.7184034026       24.1314046174       3.19  <-- CONV
        O_D=      0.6533301 O_OD=      8.9113337 O_TOT=     24.1314046 <-- SPRD
 Delta: O_D= -0.4430817E-02 O_OD= -0.1682764E-01 O_TOT= -0.2125846E-01 <-- DLTA
 ------------------------------------------------------------------------------
 Cycle:     28
  WF centre and spread    1  (  0.193899,  0.153754,  0.025135 )     6.59670196
  WF centre and spread    2  (  0.000073,  0.000047,  0.000160 )     0.39085750
  WF centre and spread    3  (  0.000235, -0.000013, -0.000078 )     0.35326384
  WF centre and spread    4  ( -0.000100, -0.000002, -0.000126 )     0.35360704
  WF centre and spread    5  (  0.000043,  0.000058, -0.000065 )     0.39102194
  WF centre and spread    6  (  0.000471,  0.000491,  0.000202 )     0.35383664
  WF centre and spread    7  (  4.351277,  4.311210,  4.163502 )     6.92344265
  WF centre and spread    8  (  4.176986,  4.176967,  4.176637 )     0.36106863
  WF centre and spread    9  (  4.177608,  4.176950,  4.177130 )     0.37283286
  WF centre and spread   10  (  4.176898,  4.177418,  4.177261 )     0.37277720
  WF centre and spread   11  (  4.176829,  4.176808,  4.177002 )     0.36024128
  WF centre and spread   12  (  4.177722,  4.177757,  4.177126 )     0.37336584
  WF centre and spread   13  (  2.092901,  2.092901,  2.080511 )     1.14091951
  WF centre and spread   14  (  2.092340,  2.091332,  2.091085 )     1.12749237
  WF centre and spread   15  (  2.091876,  2.089255,  2.091695 )     1.14034332
  WF centre and spread   16  (  6.271157,  6.271058,  6.274150 )     1.17675358
  WF centre and spread   17  (  6.284396,  6.269629,  6.269588 )     1.16306083
  WF centre and spread   18  (  6.269632,  6.280222,  6.269634 )     1.16165603
  Sum of centres and spreads ( 50.534243, 50.445844, 50.150550 )    24.11324300

     28    -0.182E-01     3.5491753652       24.1132430009       3.30  <-- CONV
        O_D=      0.6315240 O_OD=      8.9149782 O_TOT=     24.1132430 <-- SPRD
 Delta: O_D= -0.2180606E-01 O_OD=  0.3644439E-02 O_TOT= -0.1816162E-01 <-- DLTA
 ------------------------------------------------------------------------------
 Cycle:     29
  WF centre and spread    1  (  0.196869,  0.154390,  0.020685 )     6.59147680
  WF centre and spread    2  (  0.000074,  0.000046,  0.000157 )     0.39084450
  WF centre and spread    3  (  0.000242, -0.000011, -0.000078 )     0.35327971
  WF centre and spread    4  ( -0.000100, -0.000001, -0.000127 )     0.35358961
  WF centre and spread    5  (  0.000042,  0.000057, -0.000065 )     0.39099221
  WF centre and spread    6  (  0.000479,  0.000490,  0.000203 )     0.35386243
  WF centre and spread    7  (  4.361760,  4.304327,  4.162656 )     6.90966690
  WF centre and spread    8  (  4.176988,  4.176967,  4.176638 )     0.36105010
  WF centre and spread    9  (  4.177611,  4.176950,  4.177125 )     0.37283084
  WF centre and spread   10  (  4.176898,  4.177420,  4.177260 )     0.37277509
  WF centre and spread   11  (  4.176833,  4.176811,  4.177001 )     0.36024484
  WF centre and spread   12  (  4.177725,  4.177755,  4.177126 )     0.37337088
  WF centre and spread   13  (  2.092906,  2.092911,  2.080486 )     1.14039385
  WF centre and spread   14  (  2.092402,  2.091343,  2.091097 )     1.12756526
  WF centre and spread   15  (  2.091877,  2.089229,  2.091699 )     1.13962457
  WF centre and spread   16  (  6.271157,  6.271059,  6.274105 )     1.17622130
  WF centre and spread   17  (  6.284463,  6.269629,  6.269582 )     1.16244546
  WF centre and spread   18  (  6.269645,  6.280217,  6.269647 )     1.16116682
  Sum of centres and spreads ( 50.547872, 50.439588, 50.145195 )    24.09140118

     29    -0.218E-01     1.7272573478       24.0914011765       3.41  <-- CONV
        O_D=      0.6122969 O_OD=      8.9123635 O_TOT=     24.0914012 <-- SPRD
 Delta: O_D= -0.1922716E-01 O_OD= -0.2614660E-02 O_TOT= -0.2184182E-01 <-- DLTA
 ------------------------------------------------------------------------------
 Cycle:     30
  WF centre and spread    1  (  0.201000,  0.155111,  0.015693 )     6.59107457
  WF centre and spread    2  (  0.000076,  0.000045,  0.000155 )     0.39083156
  WF centre and spread    3  (  0.000251, -0.000009, -0.000082 )     0.35331988
  WF centre and spread    4  ( -0.000099,  0.000001, -0.000131 )     0.35355948
  WF centre and spread    5  (  0.000044,  0.000058, -0.000065 )     0.39094524
  WF centre and spread    6  (  0.000488,  0.000489,  0.000205 )     0.35391725
  WF centre and spread    7  (  4.369334,  4.304396,  4.149083 )     6.88999231
  WF centre and spread    8  (  4.176989,  4.176967,  4.176636 )     0.36102214
  WF centre and spread    9  (  4.177617,  4.176951,  4.177119 )     0.37282888
  WF centre and spread   10  (  4.176900,  4.177424,  4.177258 )     0.37276953
  WF centre and spread   11  (  4.176837,  4.176812,  4.177000 )     0.36025652
  WF centre and spread   12  (  4.177730,  4.177754,  4.177126 )     0.37338160
  WF centre and spread   13  (  2.092914,  2.092928,  2.080431 )     1.13954368
  WF centre and spread   14  (  2.092468,  2.091349,  2.091101 )     1.12777099
  WF centre and spread   15  (  2.091875,  2.089206,  2.091702 )     1.13861598
  WF centre and spread   16  (  6.271161,  6.271064,  6.274011 )     1.17552699
  WF centre and spread   17  (  6.284556,  6.269637,  6.269581 )     1.16190387
  WF centre and spread   18  (  6.269656,  6.280216,  6.269656 )     1.16035829
  Sum of centres and spreads ( 50.559796, 50.440398, 50.126478 )    24.06761876

     30    -0.238E-01     2.6014430050       24.0676187596       3.51  <-- CONV
        O_D=      0.5917185 O_OD=      8.9091595 O_TOT=     24.0676188 <-- SPRD
 Delta: O_D= -0.2057838E-01 O_OD= -0.3204041E-02 O_TOT= -0.2378242E-01 <-- DLTA
 ------------------------------------------------------------------------------
 Cycle:     31
  WF centre and spread    1  (  0.203029,  0.155307,  0.015677 )     6.58961209
  WF centre and spread    2  (  0.000077,  0.000045,  0.000154 )     0.39081367
  WF centre and spread    3  (  0.000255, -0.000009, -0.000081 )     0.35334691
  WF centre and spread    4  ( -0.000099,  0.000000, -0.000130 )     0.35354570
  WF centre and spread    5  (  0.000043,  0.000057, -0.000064 )     0.39092454
  WF centre and spread    6  (  0.000493,  0.000490,  0.000206 )     0.35393958
  WF centre and spread    7  (  4.366571,  4.300435,  4.158767 )     6.89301515
  WF centre and spread    8  (  4.176990,  4.176967,  4.176638 )     0.36101127
  WF centre and spread    9  (  4.177618,  4.176950,  4.177118 )     0.37282997
  WF centre and spread   10  (  4.176900,  4.177424,  4.177259 )     0.37276808
  WF centre and spread   11  (  4.176838,  4.176812,  4.177000 )     0.36025209
  WF centre and spread   12  (  4.177733,  4.177753,  4.177126 )     0.37338787
  WF centre and spread   13  (  2.092909,  2.092927,  2.080434 )     1.13915003
  WF centre and spread   14  (  2.092480,  2.091346,  2.091098 )     1.12767002
  WF centre and spread   15  (  2.091869,  2.089182,  2.091698 )     1.13788090
  WF centre and spread   16  (  6.271156,  6.271060,  6.274009 )     1.17501916
  WF centre and spread   17  (  6.284579,  6.269637,  6.269579 )     1.16150509
  WF centre and spread   18  (  6.269655,  6.280196,  6.269657 )     1.15976535
  Sum of centres and spreads ( 50.559094, 50.436578, 50.136144 )    24.06643746

     31    -0.118E-02     1.8046226973       24.0664374630       3.62  <-- CONV
        O_D=      0.5929807 O_OD=      8.9067159 O_TOT=     24.0664375 <-- SPRD
 Delta: O_D=  0.1262259E-02 O_OD= -0.2443556E-02 O_TOT= -0.1181297E-02 <-- DLTA
 ------------------------------------------------------------------------------
 Cycle:     32
  WF centre and spread    1  (  0.203067,  0.154895,  0.020160 )     6.58522483
  WF centre and spread    2  (  0.000077,  0.000045,  0.000156 )     0.39078137
  WF centre and spread    3  (  0.000257, -0.000008, -0.000090 )     0.35333948
  WF centre and spread    4  ( -0.000098,  0.000002, -0.000137 )     0.35354992
  WF centre and spread    5  (  0.000048,  0.000061, -0.000066 )     0.39092637
  WF centre and spread    6  (  0.000495,  0.000490,  0.000206 )     0.35391971
  WF centre and spread    7  (  4.377398,  4.307162,  4.138836 )     6.90237727
  WF centre and spread    8  (  4.176990,  4.176966,  4.176631 )     0.36101604
  WF centre and spread    9  (  4.177623,  4.176951,  4.177118 )     0.37283755
  WF centre and spread   10  (  4.176901,  4.177430,  4.177260 )     0.37277191
  WF centre and spread   11  (  4.176837,  4.176811,  4.177001 )     0.36022228
  WF centre and spread   12  (  4.177734,  4.177753,  4.177126 )     0.37338544
  WF centre and spread   13  (  2.092908,  2.092923,  2.080336 )     1.13862441
  WF centre and spread   14  (  2.092529,  2.091350,  2.091094 )     1.12738770
  WF centre and spread   15  (  2.091868,  2.089200,  2.091689 )     1.13738219
  WF centre and spread   16  (  6.271167,  6.271072,  6.273935 )     1.17512398
  WF centre and spread   17  (  6.284596,  6.269618,  6.269563 )     1.16075907
  WF centre and spread   18  (  6.269646,  6.280212,  6.269649 )     1.15925497
  Sum of centres and spreads ( 50.570045, 50.442932, 50.120467 )    24.06888448

     32     0.245E-02     4.0321151048       24.0688844787       3.72  <-- CONV
        O_D=      0.5980333 O_OD=      8.9041103 O_TOT=     24.0688845 <-- SPRD
 Delta: O_D=  0.5052611E-02 O_OD= -0.2605596E-02 O_TOT=  0.2447016E-02 <-- DLTA
 ------------------------------------------------------------------------------
[...]
 Delta: O_D=  0.1872712E-01 O_OD= -0.6646853E-03 O_TOT=  0.1806243E-01 <-- DLTA
 ------------------------------------------------------------------------------
 Cycle:     92
  WF centre and spread    1  (  0.209548,  0.159436,  0.005332 )     6.58718744
  WF centre and spread    2  (  0.000060,  0.000024,  0.000047 )     0.38936880
  WF centre and spread    3  (  0.000462, -0.000010, -0.000070 )     0.35476208
  WF centre and spread    4  ( -0.000077,  0.000216, -0.000074 )     0.35514574
  WF centre and spread    5  ( -0.000071, -0.000070, -0.000063 )     0.39003765
  WF centre and spread    6  (  0.000781,  0.000701,  0.000240 )     0.35533398
  WF centre and spread    7  (  4.404628,  4.317597,  4.147068 )     6.91134241
  WF centre and spread    8  (  4.177056,  4.177004,  4.176815 )     0.36114432
  WF centre and spread    9  (  4.177668,  4.176921,  4.177027 )     0.37395178
  WF centre and spread   10  (  4.176887,  4.177444,  4.177190 )     0.37379292
  WF centre and spread   11  (  4.176943,  4.176912,  4.176972 )     0.36017361
  WF centre and spread   12  (  4.177798,  4.177766,  4.177121 )     0.37389234
  WF centre and spread   13  (  2.092304,  2.092321,  2.078716 )     1.12289646
  WF centre and spread   14  (  2.092989,  2.091245,  2.090999 )     1.10001981
  WF centre and spread   15  (  2.091307,  2.089229,  2.091176 )     1.10586878
  WF centre and spread   16  (  6.270869,  6.270912,  6.273544 )     1.15177012
  WF centre and spread   17  (  6.284582,  6.268713,  6.268790 )     1.11681681
  WF centre and spread   18  (  6.269023,  6.280609,  6.269234 )     1.12005119
  Sum of centres and spreads ( 50.602756, 50.456970, 50.110064 )    23.90355625

     92     0.926E-02     7.0159705422       23.9035562486      10.11  <-- CONV
        O_D=      0.6029476 O_OD=      8.7338678 O_TOT=     23.9035562 <-- SPRD
 Delta: O_D=  0.3505607E-02 O_OD=  0.5759373E-02 O_TOT=  0.9264980E-02 <-- DLTA
 ------------------------------------------------------------------------------
 Cycle:     93
  WF centre and spread    1  (  0.209523,  0.156714,  0.008286 )     6.56755002
  WF centre and spread    2  (  0.000060,  0.000024,  0.000047 )     0.38937760
  WF centre and spread    3  (  0.000463, -0.000010, -0.000070 )     0.35476653
  WF centre and spread    4  ( -0.000077,  0.000218, -0.000075 )     0.35513477
  WF centre and spread    5  ( -0.000071, -0.000069, -0.000063 )     0.39003691
  WF centre and spread    6  (  0.000780,  0.000702,  0.000239 )     0.35533544
  WF centre and spread    7  (  4.399396,  4.329734,  4.151653 )     6.90979887
  WF centre and spread    8  (  4.177056,  4.177005,  4.176814 )     0.36117578
  WF centre and spread    9  (  4.177669,  4.176921,  4.177027 )     0.37397693
  WF centre and spread   10  (  4.176888,  4.177448,  4.177189 )     0.37385071
  WF centre and spread   11  (  4.176943,  4.176913,  4.176971 )     0.36021715
  WF centre and spread   12  (  4.177799,  4.177770,  4.177121 )     0.37393703
  WF centre and spread   13  (  2.092312,  2.092338,  2.078694 )     1.12301392
  WF centre and spread   14  (  2.092975,  2.091252,  2.091005 )     1.10000851
  WF centre and spread   15  (  2.091335,  2.089272,  2.091208 )     1.10604993
  WF centre and spread   16  (  6.270874,  6.270911,  6.273550 )     1.15192719
  WF centre and spread   17  (  6.284585,  6.268711,  6.268790 )     1.11694339
  WF centre and spread   18  (  6.269005,  6.280636,  6.269215 )     1.12031907
  Sum of centres and spreads ( 50.597513, 50.466490, 50.117600 )    23.88341975

     93    -0.201E-01     3.3397402626       23.8834197533      10.21  <-- CONV
        O_D=      0.5815810 O_OD=      8.7350979 O_TOT=     23.8834198 <-- SPRD
 Delta: O_D= -0.2136658E-01 O_OD=  0.1230087E-02 O_TOT= -0.2013650E-01 <-- DLTA
 ------------------------------------------------------------------------------
 Cycle:     94
  WF centre and spread    1  (  0.210084,  0.156746,  0.007050 )     6.56692325
  WF centre and spread    2  (  0.000060,  0.000024,  0.000047 )     0.38936547
  WF centre and spread    3  (  0.000464, -0.000010, -0.000071 )     0.35476395
  WF centre and spread    4  ( -0.000078,  0.000218, -0.000076 )     0.35511747
  WF centre and spread    5  ( -0.000072, -0.000069, -0.000063 )     0.39001790
  WF centre and spread    6  (  0.000780,  0.000702,  0.000238 )     0.35533184
  WF centre and spread    7  (  4.401058,  4.323273,  4.147687 )     6.90127238
  WF centre and spread    8  (  4.177055,  4.177005,  4.176814 )     0.36116601
  WF centre and spread    9  (  4.177670,  4.176921,  4.177026 )     0.37398433
  WF centre and spread   10  (  4.176888,  4.177449,  4.177188 )     0.37385702
  WF centre and spread   11  (  4.176943,  4.176913,  4.176971 )     0.36021932
  WF centre and spread   12  (  4.177800,  4.177771,  4.177121 )     0.37394482
  WF centre and spread   13  (  2.092310,  2.092335,  2.078676 )     1.12276329
  WF centre and spread   14  (  2.092973,  2.091248,  2.091004 )     1.09980106
  WF centre and spread   15  (  2.091336,  2.089279,  2.091209 )     1.10565766
  WF centre and spread   16  (  6.270869,  6.270902,  6.273537 )     1.15158189
  WF centre and spread   17  (  6.284588,  6.268703,  6.268785 )     1.11669018
  WF centre and spread   18  (  6.268992,  6.280639,  6.269202 )     1.11999740
  Sum of centres and spreads ( 50.599721, 50.460050, 50.112344 )    23.87245526

     94    -0.110E-01     2.0262287941       23.8724552579      10.32  <-- CONV
        O_D=      0.5726896 O_OD=      8.7330249 O_TOT=     23.8724553 <-- SPRD
 Delta: O_D= -0.8891411E-02 O_OD= -0.2073084E-02 O_TOT= -0.1096450E-01 <-- DLTA
 ------------------------------------------------------------------------------
 Cycle:     95
  WF centre and spread    1  (  0.210131,  0.159240,  0.006891 )     6.56587308
  WF centre and spread    2  (  0.000059,  0.000025,  0.000047 )     0.38933535
  WF centre and spread    3  (  0.000465, -0.000010, -0.000073 )     0.35475285
  WF centre and spread    4  ( -0.000078,  0.000219, -0.000078 )     0.35508127
  WF centre and spread    5  ( -0.000071, -0.000068, -0.000063 )     0.38997860
  WF centre and spread    6  (  0.000781,  0.000704,  0.000238 )     0.35532304
  WF centre and spread    7  (  4.405423,  4.325128,  4.146672 )     6.89901106
  WF centre and spread    8  (  4.177055,  4.177006,  4.176812 )     0.36113360
  WF centre and spread    9  (  4.177672,  4.176921,  4.177026 )     0.37398471
  WF centre and spread   10  (  4.176888,  4.177452,  4.177189 )     0.37384394
  WF centre and spread   11  (  4.176943,  4.176913,  4.176971 )     0.36019879
  WF centre and spread   12  (  4.177801,  4.177772,  4.177121 )     0.37394222
  WF centre and spread   13  (  2.092305,  2.092330,  2.078659 )     1.12204720
  WF centre and spread   14  (  2.092967,  2.091246,  2.091005 )     1.09934488
  WF centre and spread   15  (  2.091333,  2.089297,  2.091210 )     1.10470029
  WF centre and spread   16  (  6.270860,  6.270890,  6.273515 )     1.15078654
  WF centre and spread   17  (  6.284583,  6.268695,  6.268779 )     1.11604559
  WF centre and spread   18  (  6.268980,  6.280652,  6.269190 )     1.11922478
  Sum of centres and spreads ( 50.604096, 50.464412, 50.111113 )    23.86460780

     95    -0.785E-02     1.1241120986       23.8646077964      10.43  <-- CONV
        O_D=      0.5695546 O_OD=      8.7283124 O_TOT=     23.8646078 <-- SPRD
 Delta: O_D= -0.3135018E-02 O_OD= -0.4712443E-02 O_TOT= -0.7847461E-02 <-- DLTA
 ------------------------------------------------------------------------------
 Cycle:     96
  WF centre and spread    1  (  0.209978,  0.161146,  0.006424 )     6.56413803
  WF centre and spread    2  (  0.000059,  0.000025,  0.000048 )     0.38925758
  WF centre and spread    3  (  0.000468, -0.000011, -0.000074 )     0.35472655
  WF centre and spread    4  ( -0.000078,  0.000221, -0.000077 )     0.35499886
  WF centre and spread    5  ( -0.000072, -0.000069, -0.000063 )     0.38988967
  WF centre and spread    6  (  0.000784,  0.000708,  0.000238 )     0.35530466
  WF centre and spread    7  (  4.405637,  4.323641,  4.148684 )     6.89779791
  WF centre and spread    8  (  4.177054,  4.177007,  4.176814 )     0.36106545
  WF centre and spread    9  (  4.177674,  4.176921,  4.177026 )     0.37398687
  WF centre and spread   10  (  4.176888,  4.177455,  4.177189 )     0.37381621
  WF centre and spread   11  (  4.176942,  4.176911,  4.176972 )     0.36013993
  WF centre and spread   12  (  4.177804,  4.177776,  4.177122 )     0.37394458
  WF centre and spread   13  (  2.092285,  2.092311,  2.078650 )     1.12035137
  WF centre and spread   14  (  2.092941,  2.091238,  2.091003 )     1.09811014
  WF centre and spread   15  (  2.091321,  2.089309,  2.091205 )     1.10246301
  WF centre and spread   16  (  6.270836,  6.270859,  6.273503 )     1.14873011
  WF centre and spread   17  (  6.284561,  6.268674,  6.268766 )     1.11446186
  WF centre and spread   18  (  6.268938,  6.280639,  6.269153 )     1.11715272
  Sum of centres and spreads ( 50.604020, 50.464761, 50.112582 )    23.85033552

     96    -0.143E-01     1.1955955635       23.8503355176      10.53  <-- CONV
        O_D=      0.5672736 O_OD=      8.7163211 O_TOT=     23.8503355 <-- SPRD
 Delta: O_D= -0.2281006E-02 O_OD= -0.1199127E-01 O_TOT= -0.1427228E-01 <-- DLTA
 ------------------------------------------------------------------------------
 Cycle:     97
  WF centre and spread    1  (  0.209954,  0.160521,  0.005892 )     6.56321628
  WF centre and spread    2  (  0.000058,  0.000025,  0.000048 )     0.38924837
  WF centre and spread    3  (  0.000468, -0.000011, -0.000078 )     0.35472863
  WF centre and spread    4  ( -0.000078,  0.000221, -0.000079 )     0.35499032
  WF centre and spread    5  ( -0.000071, -0.000068, -0.000062 )     0.38988362
  WF centre and spread    6  (  0.000784,  0.000708,  0.000238 )     0.35530436
  WF centre and spread    7  (  4.408012,  4.328244,  4.133475 )     6.90517225
  WF centre and spread    8  (  4.177055,  4.177007,  4.176813 )     0.36106699
  WF centre and spread    9  (  4.177676,  4.176922,  4.177027 )     0.37398570
  WF centre and spread   10  (  4.176888,  4.177456,  4.177189 )     0.37381919
  WF centre and spread   11  (  4.176941,  4.176911,  4.176972 )     0.36013134
  WF centre and spread   12  (  4.177805,  4.177776,  4.177122 )     0.37394975
  WF centre and spread   13  (  2.092280,  2.092305,  2.078626 )     1.12009951
  WF centre and spread   14  (  2.092939,  2.091234,  2.090999 )     1.09799140
  WF centre and spread   15  (  2.091317,  2.089307,  2.091200 )     1.10232552
  WF centre and spread   16  (  6.270831,  6.270855,  6.273478 )     1.14866688
  WF centre and spread   17  (  6.284559,  6.268667,  6.268760 )     1.11431937
  WF centre and spread   18  (  6.268926,  6.280633,  6.269140 )     1.11696238
  Sum of centres and spreads ( 50.606344, 50.468712, 50.096760 )    23.85586187

     97     0.553E-02     2.2458730434       23.8558618655      10.64  <-- CONV
        O_D=      0.5737476 O_OD=      8.7153735 O_TOT=     23.8558619 <-- SPRD
 Delta: O_D=  0.6473991E-02 O_OD= -0.9476433E-03 O_TOT=  0.5526348E-02 <-- DLTA
 ------------------------------------------------------------------------------
 Cycle:     98
  WF centre and spread    1  (  0.209951,  0.159971,  0.006171 )     6.56274633
  WF centre and spread    2  (  0.000058,  0.000025,  0.000048 )     0.38924188
  WF centre and spread    3  (  0.000468, -0.000011, -0.000078 )     0.35473656
  WF centre and spread    4  ( -0.000078,  0.000221, -0.000079 )     0.35498831
  WF centre and spread    5  ( -0.000071, -0.000068, -0.000062 )     0.38988252
  WF centre and spread    6  (  0.000785,  0.000709,  0.000238 )     0.35530420
  WF centre and spread    7  (  4.407108,  4.328408,  4.133704 )     6.90555018
  WF centre and spread    8  (  4.177055,  4.177007,  4.176813 )     0.36106999
  WF centre and spread    9  (  4.177676,  4.176922,  4.177027 )     0.37398495
  WF centre and spread   10  (  4.176888,  4.177456,  4.177189 )     0.37382331
  WF centre and spread   11  (  4.176941,  4.176911,  4.176972 )     0.36012453
  WF centre and spread   12  (  4.177805,  4.177776,  4.177122 )     0.37395353
  WF centre and spread   13  (  2.092276,  2.092300,  2.078621 )     1.12002578
  WF centre and spread   14  (  2.092939,  2.091235,  2.090998 )     1.09791488
  WF centre and spread   15  (  2.091315,  2.089305,  2.091198 )     1.10224510
  WF centre and spread   16  (  6.270831,  6.270856,  6.273479 )     1.14862410
  WF centre and spread   17  (  6.284555,  6.268664,  6.268758 )     1.11423524
  WF centre and spread   18  (  6.268920,  6.280625,  6.269136 )     1.11685437
  Sum of centres and spreads ( 50.605421, 50.468311, 50.097256 )    23.85530577

     98    -0.556E-03     3.2110399154       23.8553057739      10.75  <-- CONV
        O_D=      0.5737133 O_OD=      8.7148517 O_TOT=     23.8553058 <-- SPRD
 Delta: O_D= -0.3429143E-04 O_OD= -0.5218003E-03 O_TOT= -0.5560917E-03 <-- DLTA
 ------------------------------------------------------------------------------
 Cycle:     99
  WF centre and spread    1  (  0.209920,  0.158319,  0.008206 )     6.56148296
  WF centre and spread    2  (  0.000058,  0.000025,  0.000048 )     0.38922328
  WF centre and spread    3  (  0.000468, -0.000011, -0.000076 )     0.35476536
  WF centre and spread    4  ( -0.000078,  0.000222, -0.000076 )     0.35499150
  WF centre and spread    5  ( -0.000073, -0.000070, -0.000062 )     0.38988324
  WF centre and spread    6  (  0.000786,  0.000709,  0.000238 )     0.35530368
  WF centre and spread    7  (  4.403920,  4.326705,  4.142970 )     6.89283702
  WF centre and spread    8  (  4.177056,  4.177008,  4.176816 )     0.36108030
  WF centre and spread    9  (  4.177675,  4.176921,  4.177028 )     0.37398437
  WF centre and spread   10  (  4.176888,  4.177455,  4.177190 )     0.37383561
  WF centre and spread   11  (  4.176940,  4.176910,  4.176972 )     0.36010390
  WF centre and spread   12  (  4.177806,  4.177777,  4.177122 )     0.37396379
  WF centre and spread   13  (  2.092262,  2.092288,  2.078631 )     1.11997644
  WF centre and spread   14  (  2.092936,  2.091238,  2.090999 )     1.09770181
  WF centre and spread   15  (  2.091313,  2.089299,  2.091196 )     1.10201386
  WF centre and spread   16  (  6.270835,  6.270864,  6.273514 )     1.14846900
  WF centre and spread   17  (  6.284540,  6.268659,  6.268756 )     1.11401270
  WF centre and spread   18  (  6.268908,  6.280597,  6.269129 )     1.11657226
  Sum of centres and spreads ( 50.602162, 50.464913, 50.108603 )    23.84020106

     99    -0.151E-01     2.8481441925       23.8402010556      10.85  <-- CONV
        O_D=      0.5599132 O_OD=      8.7135471 O_TOT=     23.8402011 <-- SPRD
 Delta: O_D= -0.1380013E-01 O_OD= -0.1304589E-02 O_TOT= -0.1510472E-01 <-- DLTA
 ------------------------------------------------------------------------------
 Cycle:    100
  WF centre and spread    1  (  0.209834,  0.158044,  0.008836 )     6.56118475
  WF centre and spread    2  (  0.000058,  0.000025,  0.000049 )     0.38921189
  WF centre and spread    3  (  0.000468, -0.000011, -0.000075 )     0.35476966
  WF centre and spread    4  ( -0.000078,  0.000222, -0.000075 )     0.35498544
  WF centre and spread    5  ( -0.000073, -0.000071, -0.000062 )     0.38987595
  WF centre and spread    6  (  0.000786,  0.000710,  0.000238 )     0.35530262
  WF centre and spread    7  (  4.401809,  4.326786,  4.145270 )     6.89001628
  WF centre and spread    8  (  4.177056,  4.177008,  4.176817 )     0.36107642
  WF centre and spread    9  (  4.177675,  4.176921,  4.177029 )     0.37398309
  WF centre and spread   10  (  4.176888,  4.177454,  4.177191 )     0.37383499
  WF centre and spread   11  (  4.176940,  4.176910,  4.176972 )     0.36009258
  WF centre and spread   12  (  4.177806,  4.177777,  4.177123 )     0.37396602
  WF centre and spread   13  (  2.092257,  2.092283,  2.078639 )     1.11982356
  WF centre and spread   14  (  2.092931,  2.091238,  2.090998 )     1.09752902
  WF centre and spread   15  (  2.091311,  2.089296,  2.091194 )     1.10177210
  WF centre and spread   16  (  6.270834,  6.270863,  6.273527 )     1.14821882
  WF centre and spread   17  (  6.284532,  6.268656,  6.268755 )     1.11382239
  WF centre and spread   18  (  6.268903,  6.280586,  6.269126 )     1.11631670
  Sum of centres and spreads ( 50.599937, 50.464698, 50.111551 )    23.83578228

    100    -0.442E-02     1.2988991750       23.8357822757      10.96  <-- CONV
        O_D=      0.5568937 O_OD=      8.7121478 O_TOT=     23.8357823 <-- SPRD
 Delta: O_D= -0.3019501E-02 O_OD= -0.1399279E-02 O_TOT= -0.4418780E-02 <-- DLTA
 ------------------------------------------------------------------------------

 Writing checkpoint file wandn.chk... done

 Final State
  WF centre and spread    1  (  0.209834,  0.158044,  0.008836 )     6.56118475
  WF centre and spread    2  (  0.000058,  0.000025,  0.000049 )     0.38921189
  WF centre and spread    3  (  0.000468, -0.000011, -0.000075 )     0.35476966
  WF centre and spread    4  ( -0.000078,  0.000222, -0.000075 )     0.35498544
  WF centre and spread    5  ( -0.000073, -0.000071, -0.000062 )     0.38987595
  WF centre and spread    6  (  0.000786,  0.000710,  0.000238 )     0.35530262
  WF centre and spread    7  (  4.401809,  4.326786,  4.145270 )     6.89001628
  WF centre and spread    8  (  4.177056,  4.177008,  4.176817 )     0.36107642
  WF centre and spread    9  (  4.177675,  4.176921,  4.177029 )     0.37398309
  WF centre and spread   10  (  4.176888,  4.177454,  4.177191 )     0.37383499
  WF centre and spread   11  (  4.176940,  4.176910,  4.176972 )     0.36009258
  WF centre and spread   12  (  4.177806,  4.177777,  4.177123 )     0.37396602
  WF centre and spread   13  (  2.092257,  2.092283,  2.078639 )     1.11982356
  WF centre and spread   14  (  2.092931,  2.091238,  2.090998 )     1.09752902
  WF centre and spread   15  (  2.091311,  2.089296,  2.091194 )     1.10177210
  WF centre and spread   16  (  6.270834,  6.270863,  6.273527 )     1.14821882
  WF centre and spread   17  (  6.284532,  6.268656,  6.268755 )     1.11382239
  WF centre and spread   18  (  6.268903,  6.280586,  6.269126 )     1.11631670
  Sum of centres and spreads ( 50.599937, 50.464698, 50.111551 )    23.83578228

         Spreads (Ang^2)       Omega I      =    14.566740798
        ================       Omega D      =     0.556893656
                               Omega OD     =     8.712147822
    Final Spread (Ang^2)       Omega Total  =    23.835782276
 ------------------------------------------------------------------------------
 Time for wannierise           10.698 (sec)

 Writing checkpoint file wandn.chk... done

 Time for plotting              0.000 (sec)
 Total Execution Time          16.950 (sec)

 *===========================================================================*
 |                             TIMING INFORMATION                            |
 *===========================================================================*
 |    Tag                                                Ncalls      Time (s)|
 |---------------------------------------------------------------------------|
 |kmesh: get                                        :         1         1.242|
 |overlap: allocate                                 :         1         0.001|
 |overlap: read                                     :         1         4.574|
 |dis: main                                         :         1         0.361|
 |wann: main                                        :         1        10.698|
 |plot: main                                        :         1         0.000|
 *---------------------------------------------------------------------------*

 All done: wannier90 exiting
