
             +---------------------------------------------------+
             |                                                   |
             |                   WANNIER90                       |
             |                                                   |
             +---------------------------------------------------+
             |                                                   |
             |        Welcome to the Maximally-Localized         |
             |        Generalized Wannier Functions code         |
             |            http://www.wannier.org                 |
             |                                                   |
             |                                                   |
             |  Wannier90 Developer Group:                       |
             |    Giovanni Pizzi    (EPFL)                       |
             |    Valerio Vitale    (Cambridge)                  |
             |    David Vanderbilt  (Rutgers University)         |
             |    Nicola Marzari    (EPFL)                       |
             |    Ivo Souza         (Universidad del Pais Vasco) |
             |    Arash A. Mostofi  (Imperial College London)    |
             |    Jonathan R. Yates (University of Oxford)       |
             |                                                   |
             |  For the full list of Wannier90 3.x authors,      |
             |  please check the code documentation and the      |
             |  README on the GitHub page of the code            |
             |                                                   |
             |                                                   |
             |  Please cite                                      |
             |                                                   |
             |  [ref] "An updated version of Wannier90:          |
             |        A Tool for Obtaining Maximally Localised   |
             |        Wannier Functions", A. A. Mostofi,         |
             |        J. R. Yates, G. Pizzi, Y. S. Lee,          |
             |        I. Souza, D. Vanderbilt and N. Marzari,    |
             |        Comput. Phys. Commun. 185, 2309 (2014)     |
             |        http://dx.doi.org/10.1016/j.cpc.2014.05.003|
             |                                                   |
             |  in any publications arising from the use of      |
             |  this code. For the method please cite            |
             |                                                   |
             |  [ref] "Maximally Localized Generalised Wannier   |
             |         Functions for Composite Energy Bands"     |
             |         N. Marzari and D. Vanderbilt              |
             |         Phys. Rev. B 56 12847 (1997)              |
             |                                                   |
             |  [ref] "Maximally Localized Wannier Functions     |
             |         for Entangled Energy Bands"               |
             |         I. Souza, N. Marzari and D. Vanderbilt    |
             |         Phys. Rev. B 65 035109 (2001)             |
             |                                                   |
             |                                                   |
             | Copyright (c) 1996-2019                           |
             |        The Wannier90 Developer Group and          |
             |        individual contributors                    |
             |                                                   |
             |      Release: 3.0.0       27th February 2019      |
             |                                                   |
             | This program is free software; you can            |
             | redistribute it and/or modify it under the terms  |
             | of the GNU General Public License as published by |
             | the Free Software Foundation; either version 2 of |
             | the License, or (at your option) any later version|
             |                                                   |
             | This program is distributed in the hope that it   |
             | will be useful, but WITHOUT ANY WARRANTY; without |
             | even the implied warranty of MERCHANTABILITY or   |
             | FITNESS FOR A PARTICULAR PURPOSE. See the GNU     |
             | General Public License for more details.          |
             |                                                   |
             | You should have received a copy of the GNU General|
             | Public License along with this program; if not,   |
             | write to the Free Software Foundation, Inc.,      |
             | 675 Mass Ave, Cambridge, MA 02139, USA.           |
             |                                                   |
             +---------------------------------------------------+
             |    Execution started on 20Jun2019 at 23:55:09     |
             +---------------------------------------------------+
 
 ******************************************************************************
 * -> Using CODATA 2006 constant values                                       *
 *    (http://physics.nist.gov/cuu/Constants/index.html)                      *
 * -> Using Bohr value from CODATA                                            *
 ******************************************************************************
 

 Running in serial (with serial executable)

                                    ------
                                    SYSTEM
                                    ------

                              Lattice Vectors (Ang)
                    a_1     4.177002   2.088501   2.088501
                    a_2     2.088501   4.177002   2.088501
                    a_3     2.088501   2.088501   4.177002

                   Unit Cell Volume:      36.43879  (Ang^3)

                        Reciprocal-Space Vectors (Ang^-1)
                    b_1     2.256350  -0.752117  -0.752117
                    b_2    -0.752117   2.256350  -0.752117
                    b_3    -0.752117  -0.752117   2.256350
  
 *----------------------------------------------------------------------------*
 |   Site       Fractional Coordinate          Cartesian Coordinate (Ang)     |
 +----------------------------------------------------------------------------+
 | Ni   1   0.00000   0.00000   0.00000   |    0.00000   0.00000   0.00000    |
 | Ni   1   0.50000   0.50000   0.50000   |    4.17700   4.17700   4.17700    |
 | O    1   0.25000   0.25000   0.25000   |    2.08850   2.08850   2.08850    |
 | O    2   0.75000   0.75000   0.75000   |    6.26550   6.26550   6.26550    |
 *----------------------------------------------------------------------------*
                                ------------
                                K-POINT GRID
                                ------------
  
             Grid size =  5 x  5 x  5      Total points =  125
  
  
 *---------------------------------- MAIN ------------------------------------*
 |  Number of Wannier Functions               :                18             |
 |  Number of Objective Wannier Functions     :                18             |
 |  Number of input Bloch states              :                50             |
 |  Output verbosity (1=low, 5=high)          :                 1             |
 |  Timing Level (1=low, 5=high)              :                 1             |
 |  Optimisation (0=memory, 3=speed)          :                 3             |
 |  Length Unit                               :               Ang             |
 |  Post-processing setup (write *.nnkp)      :                 F             |
 |  Using Gamma-only branch of algorithms     :                 F             |
 *----------------------------------------------------------------------------*
 *------------------------------- WANNIERISE ---------------------------------*
 |  Total number of iterations                :               100             |
 |  Number of CG steps before reset           :                 5             |
 |  Trial step length for line search         :             2.000             |
 |  Convergence tolerence                     :         0.100E-09             |
 |  Convergence window                        :                -1             |
 |  Iterations between writing output         :                 1             |
 |  Iterations between backing up to disk     :               100             |
 |  Write r^2_nm to file                      :                 F             |
 |  Write xyz WF centres to file              :                 F             |
 |  Write on-site energies <0n|H|0n> to file  :                 F             |
 |  Use guiding centre to control phases      :                 F             |
 |  Use phases for initial projections        :                 F             |
 *----------------------------------------------------------------------------*
 *------------------------------- DISENTANGLE --------------------------------*
 |  Using band disentanglement                :                 T             |
 |  Total number of iterations                :               200             |
 |  Mixing ratio                              :             0.500             |
 |  Convergence tolerence                     :         1.000E-10             |
 |  Convergence window                        :                 3             |
 *----------------------------------------------------------------------------*
 *-------------------------------- PLOTTING ----------------------------------*
 |  Plotting Hamiltonian in WF basis          :                 T             |
 *----------------------------------------------------------------------------*
 Time to read parameters        0.024 (sec)

 *---------------------------------- K-MESH ----------------------------------*
 +----------------------------------------------------------------------------+
 |                    Distance to Nearest-Neighbour Shells                    |
 |                    ------------------------------------                    |
 |          Shell             Distance (Ang^-1)          Multiplicity         |
 |          -----             -----------------          ------------         |
 |             1                   0.260541                      2            |
 |             2                   0.498898                      6            |
 |             3                   0.521082                      8            |
 |             4                   0.601693                      6            |
 |             5                   0.655680                      6            |
 |             6                   0.781623                      8            |
 |             7                   0.850923                     12            |
 |             8                   0.889916                     12            |
 |             9                   0.986392                      6            |
 |            10                   0.997796                     24            |
 |            11                   1.042163                      8            |
 |            12                   1.074237                     12            |
 |            13                   1.155424                     18            |
 |            14                   1.203387                      6            |
 |            15                   1.231268                      6            |
 |            16                   1.302704                     14            |
 |            17                   1.311360                     24            |
 |            18                   1.345427                     24            |
 |            19                   1.370422                     18            |
 |            20                   1.434947                     12            |
 |            21                   1.473842                     24            |
 |            22                   1.496693                     18            |
 |            23                   1.555991                     18            |
 |            24                   1.563245                     32            |
 |            25                   1.613111                     12            |
 |            26                   1.668276                     12            |
 |            27                   1.701846                     12            |
 |            28                   1.721674                     30            |
 |            29                   1.773465                     18            |
 |            30                   1.779833                     48            |
 |            31                   1.805080                     30            |
 |            32                   1.823786                     14            |
 |            33                   1.872755                     24            |
 |            34                   1.902721                     24            |
 |            35                   1.920477                      6            |
 |            36                   1.967040                     30            |
 +----------------------------------------------------------------------------+
 | The b-vectors are chosen automatically                                     |
 | The following shells are used:   1,  2                                     |
 +----------------------------------------------------------------------------+
 |                        Shell   # Nearest-Neighbours                        |
 |                        -----   --------------------                        |
 |                          1               2                                 |
 |                          2               6                                 |
 +----------------------------------------------------------------------------+
 | Completeness relation is fully satisfied [Eq. (B1), PRB 56, 12847 (1997)]  |
 +----------------------------------------------------------------------------+
 |                  b_k Vectors (Ang^-1) and Weights (Ang^2)                  |
 |                  ----------------------------------------                  |
 |            No.         b_k(x)      b_k(y)      b_k(z)        w_b           |
 |            ---        --------------------------------     --------        |
 |             1         0.150423    0.150423    0.150423     6.905412        |
 |             2        -0.150423   -0.150423   -0.150423     6.905412        |
 |             3         0.451270   -0.150423   -0.150423     1.381082        |
 |             4        -0.150423    0.451270   -0.150423     1.381082        |
 |             5        -0.150423   -0.150423    0.451270     1.381082        |
 |             6         0.150423    0.150423   -0.451270     1.381082        |
 |             7         0.150423   -0.451270    0.150423     1.381082        |
 |             8        -0.451270    0.150423    0.150423     1.381082        |
 +----------------------------------------------------------------------------+
 |                           b_k Directions (Ang^-1)                          |
 |                           -----------------------                          |
 |            No.           x           y           z                         |
 |            ---        --------------------------------                     |
 |             1         0.150423    0.150423    0.150423                     |
 |             2         0.451270   -0.150423   -0.150423                     |
 |             3        -0.150423    0.451270   -0.150423                     |
 |             4        -0.150423   -0.150423    0.451270                     |
 +----------------------------------------------------------------------------+
  
 Time to get kmesh              1.224 (sec)
 *============================================================================*
 |                              MEMORY ESTIMATE                               |
 |         Maximum RAM allocated during each phase of the calculation         |
 *============================================================================*
 |                        Disentanglement           52.04 Mb                  |
 |                            Wannierise:           14.90 Mb                  |
 |                          plot_wannier:           14.90 Mb                  |
 *----------------------------------------------------------------------------*
  
 Reading restart information from file wandn.chk :
 written on 19Jun2019 at 12:35:37 ... done

 Restarting Wannier90 from plotting routines ...

 *---------------------------------------------------------------------------*
 |                               PLOTTING                                    |
 *---------------------------------------------------------------------------*

 Time for plotting              2.372 (sec)
 Total Execution Time           3.640 (sec)

 *===========================================================================*
 |                             TIMING INFORMATION                            |
 *===========================================================================*
 |    Tag                                                Ncalls      Time (s)|
 |---------------------------------------------------------------------------|
 |kmesh: get                                        :         1         1.224|
 |plot: main                                        :         1         2.372|
 *---------------------------------------------------------------------------*

 All done: wannier90 exiting
