 written on 20Jun2019 at 23:55:11 
          18
         151
    3    2    1    2    1    1    2    2    2    2    3    1    3    1    1
    2    1    1    1    2    1    1    1    1    2    1    1    1    1    1
    3    2    2    2    2    1    1    2    1    1    1    1    3    1    1
    1    1    1    1    1    1    1    1    2    1    1    1    1    2    1
    1    3    1    2    1    1    1    2    1    1    1    1    1    1    1
    1    1    1    1    1    1    1    1    2    1    1    1    2    1    3
    1    1    2    1    1    1    1    2    1    1    1    1    1    1    1
    1    1    1    3    1    1    1    1    2    1    1    2    2    2    2
    3    1    1    1    1    1    2    1    1    1    1    2    1    1    1
    2    1    1    3    1    3    2    2    2    2    1    1    2    1    2
    3
   -4    1    1    1    1    0.049110    0.000332
   -4    1    1    2    1    0.007445   -0.000164
   -4    1    1    3    1    0.014577   -0.000243
   -4    1    1    4    1    0.011587   -0.000205
   -4    1    1    5    1   -0.000440    0.000024
   -4    1    1    6    1    0.030408    0.000160
   -4    1    1    7    1   -0.035858    0.000413
   -4    1    1    8    1   -0.005319    0.000017
   -4    1    1    9    1    0.009774    0.001441
   -4    1    1   10    1    0.009622   -0.000883
   -4    1    1   11    1    0.000102    0.000243
   -4    1    1   12    1   -0.016335    0.000152
   -4    1    1   13    1    0.035639   -0.000612
   -4    1    1   14    1   -0.016837   -0.000166
   -4    1    1   15    1   -0.014190    0.001155
   -4    1    1   16    1   -0.126164    0.000568
   -4    1    1   17    1   -0.133757    0.000293
   -4    1    1   18    1   -0.136674   -0.002283
   -4    1    1    1    2    0.003237    0.000048
   -4    1    1    2    2   -0.000171    0.000002
   -4    1    1    3    2    0.000483    0.000043
   -4    1    1    4    2    0.000491    0.000015
   -4    1    1    5    2    0.000008    0.000008
   -4    1    1    6    2   -0.000780   -0.000005
   -4    1    1    7    2   -0.004842    0.000446
   -4    1    1    8    2   -0.000254    0.000010
   -4    1    1    9    2    0.000179    0.000014
   -4    1    1   10    2    0.000210   -0.000100
   -4    1    1   11    2   -0.000003   -0.000036
   -4    1    1   12    2   -0.000120   -0.000001
   -4    1    1   13    2    0.000036    0.000155
   -4    1    1   14    2    0.000337   -0.000341
   -4    1    1   15    2    0.000171    0.000040
   -4    1    1   16    2   -0.009320   -0.000054
   -4    1    1   17    2    0.004793    0.000045
   -4    1    1   18    2    0.005628    0.000110
   -4    1    1    1    3    0.009407    0.000345
   -4    1    1    2    3    0.000266   -0.000047
   -4    1    1    3    3   -0.000457   -0.000032
   -4    1    1    4    3   -0.000266    0.000094
   -4    1    1    5    3    0.000343    0.000054
   -4    1    1    6    3    0.000648   -0.000104
   -4    1    1    7    3    0.000566   -0.001135
   -4    1    1    8    3    0.000340   -0.000008
   -4    1    1    9    3    0.000170   -0.000116
   -4    1    1   10    3    0.000605    0.000096
   -4    1    1   11    3    0.000628    0.000073
   -4    1    1   12    3    0.000117   -0.000027
   -4    1    1   13    3   -0.000636   -0.000248
   -4    1    1   14    3    0.002359    0.000345
   -4    1    1   15    3   -0.000260   -0.000137
   -4    1    1   16    3   -0.042292   -0.000128
   -4    1    1   17    3   -0.036662    0.000194
   -4    1    1   18    3   -0.011822   -0.000250
   -4    1    1    1    4    0.010629    0.000136
   -4    1    1    2    4    0.000327   -0.000005
   -4    1    1    3    4   -0.000216    0.000053
   -4    1    1    4    4   -0.000472   -0.000052
   -4    1    1    5    4   -0.000342   -0.000032
   -4    1    1    6    4    0.000636   -0.000001
   -4    1    1    7    4   -0.003109   -0.000931
   -4    1    1    8    4    0.000287   -0.000001
   -4    1    1    9    4    0.000569   -0.000036
   -4    1    1   10    4    0.000257    0.000074
   -4    1    1   11    4   -0.000636    0.000050
   -4    1    1   12    4   -0.000082    0.000028
   -4    1    1   13    4   -0.000562    0.000020
   -4    1    1   14    4   -0.000403    0.000155
   -4    1    1   15    4    0.001690   -0.000040
   -4    1    1   16    4   -0.040088    0.000099
   -4    1    1   17    4   -0.013194   -0.000186
   -4    1    1   18    4   -0.035766   -0.000358
   -4    1    1    1    5   -0.000404    0.000159
   -4    1    1    2    5    0.000010   -0.000004
   -4    1    1    3    5    0.000423    0.000009
   -4    1    1    4    5   -0.000327   -0.000023
   -4    1    1    5    5   -0.000078   -0.000006
   -4    1    1    6    5   -0.000030    0.000028
   -4    1    1    7    5   -0.000140    0.000033
   -4    1    1    8    5   -0.000010    0.000008
   -4    1    1    9    5    0.000570   -0.000005
   -4    1    1   10    5   -0.000587    0.000004
   -4    1    1   11    5   -0.000357   -0.000016
   -4    1    1   12    5   -0.000041   -0.000001
   -4    1    1   13    5    0.000139    0.000027
   -4    1    1   14    5   -0.002034   -0.000114
   -4    1    1   15    5    0.001762    0.000079
   -4    1    1   16    5   -0.001131    0.000051
   -4    1    1   17    5   -0.004377   -0.000073
   -4    1    1   18    5    0.004709    0.000003
   -4    1    1    1    6    0.022233    0.000004
   -4    1    1    2    6   -0.000799    0.000043
   -4    1    1    3    6    0.000858    0.000050
   -4    1    1    4    6    0.000928   -0.000032
   -4    1    1    5    6    0.000039   -0.000031
   -4    1    1    6    6   -0.001342    0.000038
   -4    1    1    7    6   -0.023454    0.002035
   -4    1    1    8    6   -0.000973   -0.000019
   -4    1    1    9    6    0.000851    0.000007
   -4    1    1   10    6    0.000925   -0.000033
   -4    1    1   11    6    0.000083   -0.000030
   -4    1    1   12    6    0.000819   -0.000028
   -4    1    1   13    6    0.001054    0.000264
   -4    1    1   14    6    0.001344   -0.000296
   -4    1    1   15    6    0.001151   -0.000021
   -4    1    1   16    6   -0.007548   -0.000020
   -4    1    1   17    6   -0.046568   -0.000271
   -4    1    1   18    6   -0.046785    0.000489
   -4    1    1    1    7    0.066366   -0.000329
   -4    1    1    2    7    0.005946    0.000315
   -4    1    1    3    7   -0.001169   -0.001771
   -4    1    1    4    7    0.001525    0.000598
   -4    1    1    5    7   -0.001963    0.000252
   -4    1    1    6    7   -0.027819    0.000901
   -4    1    1    7    7    0.055123    0.002492
   -4    1    1    8    7    0.003751   -0.000015
   -4    1    1    9    7    0.011690    0.000373
   -4    1    1   10    7    0.010751    0.000302
   -4    1    1   11    7   -0.000163   -0.000031
   -4    1    1   12    7    0.028912   -0.000291
   -4    1    1   13    7   -0.020482    0.002147
   -4    1    1   14    7    0.010551   -0.000617
   -4    1    1   15    7    0.021607   -0.000681
   -4    1    1   16    7    0.035702   -0.000745
   -4    1    1   17    7   -0.017916    0.000262
   -4    1    1   18    7   -0.013901    0.000810
   -4    1    1    1    8   -0.000549   -0.000069
   -4    1    1    2    8   -0.000367    0.000010
   -4    1    1    3    8    0.000827   -0.000094
   -4    1    1    4    8    0.000789   -0.000010
   -4    1    1    5    8   -0.000009   -0.000002
   -4    1    1    6    8   -0.001343    0.000125
   -4    1    1    7    8    0.003473   -0.000058
   -4    1    1    8    8    0.000231    0.000009
   -4    1    1    9    8    0.000117   -0.000008
   -4    1    1   10    8    0.000046   -0.000003
   -4    1    1   11    8   -0.000008    0.000008
   -4    1    1   12    8   -0.000482    0.000007
   -4    1    1   13    8   -0.000541   -0.000023
   -4    1    1   14    8   -0.000762   -0.000065
   -4    1    1   15    8   -0.001083    0.000169
   -4    1    1   16    8   -0.000290   -0.000048
   -4    1    1   17    8    0.000843    0.000030
   -4    1    1   18    8    0.000388    0.000082
   -4    1    1    1    9    0.013467   -0.000808
   -4    1    1    2    9    0.000283   -0.000105
   -4    1    1    3    9   -0.001686    0.000041
   -4    1    1    4    9   -0.000523   -0.000014
   -4    1    1    5    9    0.001157   -0.000021
   -4    1    1    6    9    0.000715    0.000001
   -4    1    1    7    9    0.010019   -0.000329
   -4    1    1    8    9    0.000455    0.000050
   -4    1    1    9    9   -0.000654   -0.000000
   -4    1    1   10    9    0.000096    0.000002
   -4    1    1   11    9    0.000591   -0.000001
   -4    1    1   12    9    0.000447    0.000082
   -4    1    1   13    9   -0.001263   -0.000596
   -4    1    1   14    9    0.002583    0.000450
   -4    1    1   15    9    0.002128    0.000054
   -4    1    1   16    9   -0.001332   -0.000278
   -4    1    1   17    9    0.001185   -0.000149
   -4    1    1   18    9    0.000776    0.000167
   -4    1    1    1   10    0.010097   -0.000123
   -4    1    1    2   10    0.000378    0.000050
   -4    1    1    3   10   -0.000361   -0.000024
   -4    1    1    4   10   -0.001572   -0.000113
   -4    1    1    5   10   -0.001023    0.000006
   -4    1    1    6   10    0.000716    0.000002
   -4    1    1    7   10    0.009308    0.000358
   -4    1    1    8   10    0.000391    0.000032
   -4    1    1    9   10    0.000235   -0.000006
   -4    1    1   10   10   -0.000491   -0.000017
   -4    1    1   11   10   -0.000616   -0.000023
   -4    1    1   12   10    0.000296    0.000026
   -4    1    1   13   10   -0.001122    0.000061
   -4    1    1   14   10    0.002543    0.000040
   -4    1    1   15   10    0.002100   -0.000031
   -4    1    1   16   10   -0.001036    0.000255
   -4    1    1   17   10    0.000006   -0.000137
   -4    1    1   18   10    0.001503   -0.000135
   -4    1    1    1   11   -0.000467    0.000086
   -4    1    1    2   11    0.000022   -0.000005
   -4    1    1    3   11    0.001805    0.000103
   -4    1    1    4   11   -0.001803   -0.000051
   -4    1    1    5   11   -0.000392   -0.000015
   -4    1    1    6   11    0.000136   -0.000091
   -4    1    1    7   11   -0.000116    0.000113
   -4    1    1    8   11   -0.000004   -0.000003
   -4    1    1    9   11    0.000659    0.000023
   -4    1    1   10   11   -0.000523    0.000002
   -4    1    1   11   11    0.000339   -0.000006
   -4    1    1   12   11   -0.000075   -0.000012
   -4    1    1   13   11   -0.000032    0.000277
   -4    1    1   14   11   -0.000169   -0.000012
   -4    1    1   15   11    0.000408   -0.000232
   -4    1    1   16   11    0.000044    0.000154
   -4    1    1   17   11   -0.001565   -0.000072
   -4    1    1   18   11    0.001418   -0.000122
   -4    1    1    1   12   -0.009335   -0.000316
   -4    1    1    2   12   -0.000652   -0.000031
   -4    1    1    3   12    0.000020   -0.000018
   -4    1    1    4   12   -0.000477   -0.000037
   -4    1    1    5   12   -0.000077   -0.000051
   -4    1    1    6   12   -0.001937    0.000043
   -4    1    1    7   12    0.027684    0.000347
   -4    1    1    8   12   -0.000757   -0.000014
   -4    1    1    9   12    0.000484   -0.000088
   -4    1    1   10   12    0.000399   -0.000031
   -4    1    1   11   12   -0.000060    0.000038
   -4    1    1   12   12   -0.000696   -0.000024
   -4    1    1   13   12   -0.002893   -0.000122
   -4    1    1   14   12    0.000835   -0.000160
   -4    1    1   15   12   -0.000259    0.000162
   -4    1    1   16   12    0.000389   -0.000219
   -4    1    1   17   12    0.001891    0.000424
   -4    1    1   18   12    0.001176    0.000067
   -4    1    1    1   13   -0.000742   -0.000261
   -4    1    1    2   13    0.002257   -0.000108
   -4    1    1    3   13   -0.000714    0.000180
   -4    1    1    4   13   -0.001077    0.000049
   -4    1    1    5   13   -0.000110    0.000073
   -4    1    1    6   13   -0.003099   -0.000245
   -4    1    1    7   13   -0.042137   -0.001970
   -4    1    1    8   13    0.000238   -0.000158
   -4    1    1    9   13    0.001653    0.000439
   -4    1    1   10   13    0.001634   -0.000053
   -4    1    1   11   13    0.000005   -0.000153
   -4    1    1   12   13   -0.001514   -0.000175
   -4    1    1   13   13   -0.004248   -0.000235
   -4    1    1   14   13    0.009720    0.000486
   -4    1    1   15   13    0.009474   -0.000160
   -4    1    1   16   13    0.011224   -0.001093
   -4    1    1   17   13    0.006793    0.000869
   -4    1    1   18   13    0.004971   -0.000832
   -4    1    1    1   14   -0.029693   -0.000369
   -4    1    1    2   14   -0.001057    0.000079
   -4    1    1    3   14   -0.002225   -0.000765
   -4    1    1    4   14    0.001506   -0.000019
   -4    1    1    5   14    0.000614   -0.000004
   -4    1    1    6   14    0.001844    0.000418
   -4    1    1    7   14    0.015099    0.000986
   -4    1    1    8   14   -0.000719    0.000214
   -4    1    1    9   14   -0.001017   -0.000369
   -4    1    1   10   14   -0.000498   -0.000028
   -4    1    1   11   14    0.001752    0.000148
   -4    1    1   12   14   -0.000747    0.000304
   -4    1    1   13   14    0.010459   -0.000316
   -4    1    1   14   14   -0.021024   -0.000485
   -4    1    1   15   14    0.012365    0.001037
   -4    1    1   16   14    0.013636    0.000922
   -4    1    1   17   14    0.022235   -0.000774
   -4    1    1   18   14   -0.006729    0.000235
   -4    1    1    1   15   -0.017202   -0.001414
   -4    1    1    2   15   -0.001136    0.000073
   -4    1    1    3   15    0.000697    0.000331
   -4    1    1    4   15   -0.002869   -0.000375
   -4    1    1    5   15   -0.000312   -0.000084
   -4    1    1    6   15    0.001959    0.000229
   -4    1    1    7   15    0.021191    0.002505
   -4    1    1    8   15   -0.000660    0.000001
   -4    1    1    9   15   -0.000404   -0.000071
   -4    1    1   10   15   -0.000906   -0.000070
   -4    1    1   11   15   -0.001727   -0.000035
   -4    1    1   12   15   -0.000719   -0.000021
   -4    1    1   13   15    0.009665   -0.000179
   -4    1    1   14   15    0.013294    0.000177
   -4    1    1   15   15   -0.020416   -0.000423
   -4    1    1   16   15    0.013227   -0.000657
   -4    1    1   17   15   -0.007748   -0.000004
   -4    1    1   18   15    0.024710    0.000905
   -4    1    1    1   16    0.057766    0.000315
   -4    1    1    2   16   -0.002367   -0.000177
   -4    1    1    3   16    0.002114   -0.000069
   -4    1    1    4   16    0.002033   -0.000035
   -4    1    1    5   16   -0.000119   -0.000103
   -4    1    1    6   16    0.000293    0.000143
   -4    1    1    7   16    0.003002   -0.003500
   -4    1    1    8   16    0.004285   -0.000234
   -4    1    1    9   16   -0.000734    0.000375
   -4    1    1   10   16   -0.000855    0.000077
   -4    1    1   11   16   -0.000076   -0.000002
   -4    1    1   12   16   -0.003886    0.000278
   -4    1    1   13   16   -0.028508   -0.001081
   -4    1    1   14   16    0.010791   -0.000494
   -4    1    1   15   16    0.010488    0.001300
   -4    1    1   16   16   -0.008235   -0.000871
   -4    1    1   17   16    0.007966    0.001229
   -4    1    1   18   16    0.008616   -0.000236
   -4    1    1    1   17    0.045719    0.001427
   -4    1    1    2   17    0.001423    0.000186
   -4    1    1    3   17    0.003389    0.000377
   -4    1    1    4   17    0.003606    0.000000
   -4    1    1    5   17   -0.001988    0.000159
   -4    1    1    6   17    0.000168   -0.000234
   -4    1    1    7   17   -0.030197    0.001273
   -4    1    1    8   17   -0.001493   -0.000005
   -4    1    1    9   17   -0.000222   -0.000136
   -4    1    1   10   17   -0.001346   -0.000023
   -4    1    1   11   17    0.001645    0.000140
   -4    1    1   12   17    0.003966   -0.000442
   -4    1    1   13   17   -0.002228    0.000004
   -4    1    1   14   17   -0.028449    0.000427
   -4    1    1   15   17   -0.018585   -0.001362
   -4    1    1   16   17    0.010928    0.000008
   -4    1    1   17   17   -0.020054   -0.000388
   -4    1    1   18   17    0.013464    0.000186
   -4    1    1    1   18    0.071190    0.000202
   -4    1    1    2   18    0.001407    0.000066
   -4    1    1    3   18    0.002858   -0.000034
   -4    1    1    4   18    0.002703    0.000227
   -4    1    1    5   18    0.001655   -0.000005
   -4    1    1    6   18   -0.000224   -0.000126
   -4    1    1    7   18   -0.024445    0.000057
   -4    1    1    8   18   -0.001990    0.000155
   -4    1    1    9   18   -0.001198   -0.000110
   -4    1    1   10   18   -0.000302   -0.000079
   -4    1    1   11   18   -0.001615   -0.000138
   -4    1    1   12   18    0.002604   -0.000003
   -4    1    1   13   18    0.003825    0.001300
   -4    1    1   14   18   -0.016164   -0.000661
   -4    1    1   15   18   -0.026447   -0.000365
   -4    1    1   16   18    0.009805    0.000654
   -4    1    1   17   18    0.014207   -0.000346
   -4    1    1   18   18   -0.019456   -0.000336
   -3   -1    2    1    1    0.012843    0.001449
   -3   -1    2    2    1    0.005184   -0.000265
   -3   -1    2    3    1    0.004125    0.000097
   -3   -1    2    4    1   -0.005227    0.000582
   -3   -1    2    5    1   -0.000545    0.000112
   -3   -1    2    6    1    0.004995   -0.000214
   -3   -1    2    7    1   -0.006237    0.000019
   -3   -1    2    8    1   -0.003255   -0.000141
   -3   -1    2    9    1   -0.015867    0.001306
   -3   -1    2   10    1   -0.003422   -0.000817
   -3   -1    2   11    1   -0.002794    0.000283
   -3   -1    2   12    1   -0.013392    0.000330
   -3   -1    2   13    1    0.012896   -0.000214
   -3   -1    2   14    1   -0.036017   -0.001076
   -3   -1    2   15    1   -0.002276    0.001007
   -3   -1    2   16    1   -0.003327   -0.001466
   -3   -1    2   17    1    0.007398    0.001522
   -3   -1    2   18    1   -0.011103   -0.001625
   -3   -1    2    1    2    0.004669   -0.000092
   -3   -1    2    2    2   -0.000195   -0.000009
   -3   -1    2    3    2    0.000402   -0.000052
   -3   -1    2    4    2    0.000122   -0.000020
   -3   -1    2    5    2   -0.000009   -0.000012
   -3   -1    2    6    2   -0.000315    0.000089
   -3   -1    2    7    2   -0.003578    0.000385
   -3   -1    2    8    2    0.000163    0.000008
   -3   -1    2    9    2   -0.000115   -0.000046
   -3   -1    2   10    2    0.000080   -0.000073
   -3   -1    2   11    2   -0.000273   -0.000027
   -3   -1    2   12    2    0.000407   -0.000017
   -3   -1    2   13    2   -0.000091   -0.000085
   -3   -1    2   14    2   -0.000278   -0.000220
   -3   -1    2   15    2   -0.000151    0.000281
   -3   -1    2   16    2   -0.001401   -0.000190
   -3   -1    2   17    2   -0.000550    0.000204
   -3   -1    2   18    2   -0.000068    0.000030
   -3   -1    2    1    3    0.007711    0.000174
   -3   -1    2    2    3    0.000148    0.000057
   -3   -1    2    3    3    0.000270   -0.000036
   -3   -1    2    4    3   -0.000333    0.000035
   -3   -1    2    5    3    0.000315    0.000036
   -3   -1    2    6    3    0.000387   -0.000046
   -3   -1    2    7    3   -0.024532   -0.000992
   -3   -1    2    8    3   -0.000249   -0.000027
   -3   -1    2    9    3    0.000205   -0.000032
   -3   -1    2   10    3    0.000381    0.000070
   -3   -1    2   11    3    0.000006    0.000126
   -3   -1    2   12    3   -0.000420   -0.000079
   -3   -1    2   13    3   -0.001100    0.000044
   -3   -1    2   14    3    0.000518    0.000072
   -3   -1    2   15    3    0.000008   -0.000049
   -3   -1    2   16    3   -0.006451   -0.000011
   -3   -1    2   17    3   -0.007207    0.000027
   -3   -1    2   18    3    0.010836   -0.000194
   -3   -1    2    1    4   -0.005981    0.000404
   -3   -1    2    2    4    0.000093   -0.000008
   -3   -1    2    3    4   -0.000293   -0.000015
   -3   -1    2    4    4   -0.000813    0.000044
   -3   -1    2    5    4   -0.000032    0.000006
   -3   -1    2    6    4    0.000277   -0.000036
   -3   -1    2    7    4   -0.008248   -0.001154
   -3   -1    2    8    4    0.000168   -0.000006
   -3   -1    2    9    4   -0.000195    0.000016
   -3   -1    2   10    4   -0.000460    0.000068
   -3   -1    2   11    4    0.000382    0.000093
   -3   -1    2   12    4    0.000514    0.000026
   -3   -1    2   13    4   -0.000764    0.000157
   -3   -1    2   14    4   -0.001175   -0.000043
   -3   -1    2   15    4    0.000976   -0.000016
   -3   -1    2   16    4   -0.003553   -0.000017
   -3   -1    2   17    4    0.006711   -0.000063
   -3   -1    2   18    4    0.000248   -0.000133
   -3   -1    2    1    5    0.003039    0.000135
   -3   -1    2    2    5   -0.000017   -0.000011
   -3   -1    2    3    5    0.000329   -0.000032
   -3   -1    2    4    5   -0.000214   -0.000013
   -3   -1    2    5    5   -0.000211    0.000001
   -3   -1    2    6    5   -0.000074    0.000040
   -3   -1    2    7    5   -0.003532   -0.000182
   -3   -1    2    8    5   -0.000091   -0.000005
   -3   -1    2    9    5   -0.000187    0.000020
   -3   -1    2   10    5    0.000167   -0.000002
   -3   -1    2   11    5   -0.000023    0.000005
   -3   -1    2   12    5    0.000277    0.000000
   -3   -1    2   13    5   -0.000844    0.000083
   -3   -1    2   14    5   -0.000875   -0.000120
   -3   -1    2   15    5    0.000991    0.000051
   -3   -1    2   16    5    0.000137   -0.000090
   -3   -1    2   17    5    0.000588   -0.000030
   -3   -1    2   18    5   -0.003293    0.000125
   -3   -1    2    1    6    0.006545   -0.000434
   -3   -1    2    2    6   -0.000197   -0.000011
   -3   -1    2    3    6    0.000243    0.000002
   -3   -1    2    4    6    0.000694   -0.000077
   -3   -1    2    5    6   -0.000045   -0.000058
   -3   -1    2    6    6   -0.001119    0.000087
   -3   -1    2    7    6   -0.016873    0.001986
   -3   -1    2    8    6    0.000081    0.000012
   -3   -1    2    9    6    0.000427   -0.000037
   -3   -1    2   10    6    0.000396   -0.000067
   -3   -1    2   11    6    0.000203   -0.000135
   -3   -1    2   12    6   -0.000180    0.000028
   -3   -1    2   13    6    0.000806    0.000020
   -3   -1    2   14    6   -0.000177   -0.000033
   -3   -1    2   15    6    0.000298    0.000025
   -3   -1    2   16    6    0.003178    0.000036
   -3   -1    2   17    6   -0.006061   -0.000175
   -3   -1    2   18    6   -0.001203    0.000316
   -3   -1    2    1    7   -0.005100   -0.000021
   -3   -1    2    2    7    0.010443    0.000486
   -3   -1    2    3    7    0.010633   -0.001933
   -3   -1    2    4    7   -0.009395    0.000913
   -3   -1    2    5    7    0.009911    0.000118
   -3   -1    2    6    7   -0.020896    0.001500
   -3   -1    2    7    7    0.025929   -0.000451
   -3   -1    2    8    7    0.002855   -0.000039
   -3   -1    2    9    7    0.002753    0.000455
   -3   -1    2   10    7   -0.005149    0.000147
   -3   -1    2   11    7    0.001096    0.000101
   -3   -1    2   12    7    0.005323    0.000034
   -3   -1    2   13    7   -0.048615   -0.000886
   -3   -1    2   14    7   -0.006370    0.001673
   -3   -1    2   15    7    0.000515   -0.000668
   -3   -1    2   16    7    0.011350   -0.000070
   -3   -1    2   17    7   -0.033357   -0.001622
   -3   -1    2   18    7   -0.008705    0.001869
   -3   -1    2    1    8    0.000232    0.000096
   -3   -1    2    2    8    0.000525    0.000011
   -3   -1    2    3    8    0.001253   -0.000096
   -3   -1    2    4    8    0.001903   -0.000011
   -3   -1    2    5    8   -0.000711   -0.000011
   -3   -1    2    6    8   -0.000963    0.000097
   -3   -1    2    7    8    0.003545    0.000044
   -3   -1    2    8    8   -0.000161    0.000006
   -3   -1    2    9    8    0.000116    0.000032
   -3   -1    2   10    8    0.000090    0.000035
   -3   -1    2   11    8    0.000102    0.000007
   -3   -1    2   12    8   -0.000044   -0.000000
   -3   -1    2   13    8   -0.002107   -0.000185
   -3   -1    2   14    8    0.002523    0.000070
   -3   -1    2   15    8   -0.002150    0.000206
   -3   -1    2   16    8    0.000039   -0.000056
   -3   -1    2   17    8   -0.000238   -0.000077
   -3   -1    2   18    8   -0.000042    0.000118
   -3   -1    2    1    9   -0.001961    0.000179
   -3   -1    2    2    9    0.000547   -0.000074
   -3   -1    2    3    9   -0.001442    0.000060
   -3   -1    2    4    9    0.000173   -0.000015
   -3   -1    2    5    9    0.001620   -0.000011
   -3   -1    2    6    9   -0.001004   -0.000027
   -3   -1    2    7    9    0.008952   -0.001073
   -3   -1    2    8    9    0.000410   -0.000013
   -3   -1    2    9    9    0.000159   -0.000048
   -3   -1    2   10    9   -0.000332    0.000034
   -3   -1    2   11    9    0.000312    0.000075
   -3   -1    2   12    9    0.000256    0.000030
   -3   -1    2   13    9    0.000796   -0.000129
   -3   -1    2   14    9    0.000610   -0.000083
   -3   -1    2   15    9    0.000343    0.000036
   -3   -1    2   16    9   -0.001839   -0.000107
   -3   -1    2   17    9   -0.000487    0.000050
   -3   -1    2   18    9    0.001100    0.000125
   -3   -1    2    1   10    0.009433   -0.000519
   -3   -1    2    2   10    0.000839    0.000030
   -3   -1    2    3   10   -0.000639    0.000065
   -3   -1    2    4   10   -0.000137   -0.000082
   -3   -1    2    5   10   -0.000093   -0.000025
   -3   -1    2    6   10    0.000648    0.000012
   -3   -1    2    7   10   -0.009669   -0.000232
   -3   -1    2    8   10   -0.000072    0.000007
   -3   -1    2    9   10    0.000011   -0.000013
   -3   -1    2   10   10   -0.000833   -0.000011
   -3   -1    2   11   10   -0.000092   -0.000002
   -3   -1    2   12   10    0.000180    0.000005
   -3   -1    2   13   10   -0.002241    0.000211
   -3   -1    2   14   10    0.000273   -0.000222
   -3   -1    2   15   10   -0.001030    0.000112
   -3   -1    2   16   10   -0.001226    0.000193
   -3   -1    2   17   10   -0.000911    0.000087
   -3   -1    2   18   10    0.000703   -0.000289
   -3   -1    2    1   11    0.003863    0.000109
   -3   -1    2    2   11   -0.000867   -0.000014
   -3   -1    2    3   11    0.001842    0.000152
   -3   -1    2    4   11   -0.000446   -0.000023
   -3   -1    2    5   11   -0.000535   -0.000012
   -3   -1    2    6   11    0.002435   -0.000067
   -3   -1    2    7   11    0.000131   -0.000118
   -3   -1    2    8   11    0.000150   -0.000010
   -3   -1    2    9   11    0.000435   -0.000047
   -3   -1    2   10   11   -0.000199   -0.000014
   -3   -1    2   11   11    0.000021   -0.000014
   -3   -1    2   12   11    0.000281   -0.000024
   -3   -1    2   13   11    0.001144    0.000336
   -3   -1    2   14   11    0.000590   -0.000313
   -3   -1    2   15   11   -0.001642   -0.000130
   -3   -1    2   16   11   -0.000815    0.000108
   -3   -1    2   17   11   -0.000174    0.000149
   -3   -1    2   18   11   -0.000093   -0.000203
   -3   -1    2    1   12   -0.008986    0.000116
   -3   -1    2    2   12   -0.000188    0.000018
   -3   -1    2    3   12    0.000401   -0.000023
   -3   -1    2    4   12   -0.001553   -0.000059
   -3   -1    2    5   12    0.000290   -0.000047
   -3   -1    2    6   12    0.000401    0.000080
   -3   -1    2    7   12    0.005707   -0.000657
   -3   -1    2    8   12   -0.000069   -0.000024
   -3   -1    2    9   12    0.000101   -0.000019
   -3   -1    2   10   12    0.000310    0.000022
   -3   -1    2   11   12   -0.000240    0.000055
   -3   -1    2   12   12   -0.000821   -0.000029
   -3   -1    2   13   12   -0.003756   -0.000037
   -3   -1    2   14   12   -0.002339   -0.000075
   -3   -1    2   15   12   -0.000763    0.000160
   -3   -1    2   16   12    0.000220   -0.000075
   -3   -1    2   17   12    0.000223    0.000151
   -3   -1    2   18   12    0.000426    0.000040
   -3   -1    2    1   13    0.036388    0.000837
   -3   -1    2    2   13    0.002021    0.000133
   -3   -1    2    3   13    0.001069   -0.000018
   -3   -1    2    4   13   -0.002111    0.000151
   -3   -1    2    5   13   -0.001476    0.000249
   -3   -1    2    6   13    0.000415   -0.000165
   -3   -1    2    7   13   -0.003218   -0.000175
   -3   -1    2    8   13   -0.000461   -0.000106
   -3   -1    2    9   13    0.000729    0.000068
   -3   -1    2   10   13    0.002119    0.000012
   -3   -1    2   11   13    0.000395    0.000005
   -3   -1    2   12   13   -0.000088   -0.000176
   -3   -1    2   13   13    0.004590   -0.000066
   -3   -1    2   14   13    0.001141   -0.000050
   -3   -1    2   15   13    0.006755   -0.000094
   -3   -1    2   16   13    0.005201   -0.000496
   -3   -1    2   17   13   -0.010882    0.000917
   -3   -1    2   18   13   -0.004968   -0.000850
   -3   -1    2    1   14    0.000307   -0.000626
   -3   -1    2    2   14   -0.000974   -0.000121
   -3   -1    2    3   14   -0.001932   -0.000209
   -3   -1    2    4   14    0.003902   -0.000147
   -3   -1    2    5   14    0.000857   -0.000113
   -3   -1    2    6   14    0.001436    0.000237
   -3   -1    2    7   14    0.023410   -0.002215
   -3   -1    2    8   14    0.000599   -0.000001
   -3   -1    2    9   14    0.000516   -0.000069
   -3   -1    2   10   14    0.000318    0.000038
   -3   -1    2   11   14    0.001419    0.000091
   -3   -1    2   12   14   -0.000761    0.000241
   -3   -1    2   13   14    0.003040   -0.000400
   -3   -1    2   14   14   -0.006522   -0.000229
   -3   -1    2   15   14    0.004602    0.000635
   -3   -1    2   16   14   -0.013969    0.000577
   -3   -1    2   17   14    0.015359   -0.000559
   -3   -1    2   18   14   -0.006186    0.000720
   -3   -1    2    1   15   -0.007045    0.000122
   -3   -1    2    2   15    0.000065    0.000014
   -3   -1    2    3   15   -0.002061    0.000104
   -3   -1    2    4   15    0.002625   -0.000213
   -3   -1    2    5   15    0.001248   -0.000181
   -3   -1    2    6   15    0.002115    0.000053
   -3   -1    2    7   15    0.010605    0.001589
   -3   -1    2    8   15    0.000050    0.000162
   -3   -1    2    9   15    0.000394   -0.000125
   -3   -1    2   10   15   -0.001367    0.000014
   -3   -1    2   11   15   -0.000356   -0.000153
   -3   -1    2   12   15    0.000088    0.000095
   -3   -1    2   13   15    0.005199   -0.000127
   -3   -1    2   14   15    0.008099    0.000140
   -3   -1    2   15   15   -0.016668    0.000358
   -3   -1    2   16   15    0.003522   -0.000575
   -3   -1    2   17   15   -0.015981   -0.000176
   -3   -1    2   18   15    0.004859    0.000151
   -3   -1    2    1   16    0.048309    0.000195
   -3   -1    2    2   16   -0.002989    0.000145
   -3   -1    2    3   16   -0.004986   -0.000127
   -3   -1    2    4   16   -0.002645   -0.000429
   -3   -1    2    5   16   -0.002001   -0.000141
   -3   -1    2    6   16    0.002097    0.000390
   -3   -1    2    7   16    0.031515   -0.002361
   -3   -1    2    8   16    0.002788   -0.000163
   -3   -1    2    9   16    0.000800    0.000106
   -3   -1    2   10   16   -0.001989    0.000269
   -3   -1    2   11   16   -0.002129    0.000278
   -3   -1    2   12   16    0.001301   -0.000096
   -3   -1    2   13   16   -0.013290   -0.001326
   -3   -1    2   14   16    0.035492   -0.000018
   -3   -1    2   15   16   -0.015460    0.001682
   -3   -1    2   16   16    0.003122   -0.000653
   -3   -1    2   17   16   -0.001628    0.000989
   -3   -1    2   18   16    0.007549   -0.000036
   -3   -1    2    1   17    0.051184    0.001097
   -3   -1    2    2   17   -0.002163    0.000214
   -3   -1    2    3   17    0.003007    0.000125
   -3   -1    2    4   17   -0.000849    0.000045
   -3   -1    2    5   17   -0.008135    0.000122
   -3   -1    2    6   17   -0.003219   -0.000158
   -3   -1    2    7   17   -0.003483    0.001284
   -3   -1    2    8   17   -0.000573    0.000103
   -3   -1    2    9   17   -0.000713    0.000027
   -3   -1    2   10   17    0.003522   -0.000227
   -3   -1    2   11   17    0.001957   -0.000089
   -3   -1    2   12   17    0.004230   -0.000007
   -3   -1    2   13   17    0.009660    0.000696
   -3   -1    2   14   17   -0.011043    0.000821
   -3   -1    2   15   17    0.002946   -0.001343
   -3   -1    2   16   17    0.002782    0.000342
   -3   -1    2   17   17   -0.004668   -0.000661
   -3   -1    2   18   17    0.005566   -0.000236
   -3   -1    2    1   18   -0.042785   -0.001331
   -3   -1    2    2   18    0.002065   -0.000308
   -3   -1    2    3   18    0.001227    0.000186
   -3   -1    2    4   18    0.004651    0.000445
   -3   -1    2    5   18    0.000370    0.000038
   -3   -1    2    6   18    0.002719   -0.000573
   -3   -1    2    7   18   -0.004176    0.002530
   -3   -1    2    8   18   -0.000610    0.000130
   -3   -1    2    9   18   -0.003411   -0.000041
   -3   -1    2   10   18    0.003559   -0.000201
   -3   -1    2   11   18    0.001500   -0.000262
   -3   -1    2   12   18    0.000228   -0.000004
   -3   -1    2   13   18   -0.004205    0.001295
   -3   -1    2   14   18   -0.034687   -0.000730
   -3   -1    2   15   18    0.025750   -0.000639
   -3   -1    2   16   18    0.005083    0.000295
   -3   -1    2   17   18    0.006979   -0.000210
   -3   -1    2   18   18   -0.015648    0.000261
   -3    0    1    1    1   -0.024421    0.001126
   -3    0    1    2    1   -0.005443   -0.000197
   -3    0    1    3    1   -0.001776    0.000038
   -3    0    1    4    1   -0.006661    0.000358
   -3    0    1    5    1    0.002770   -0.000036
   -3    0    1    6    1   -0.003891   -0.000048
   -3    0    1    7    1    0.008946    0.000947
   -3    0    1    8    1    0.005188    0.000078
   -3    0    1    9    1   -0.016784   -0.000432
   -3    0    1   10    1    0.010761    0.000922
   -3    0    1   11    1   -0.002679   -0.000292
   -3    0    1   12    1    0.009597    0.000162
   -3    0    1   13    1   -0.014123   -0.000723
   -3    0    1   14    1   -0.004767    0.001293
   -3    0    1   15    1    0.038871    0.000047
   -3    0    1   16    1   -0.078746   -0.002143
   -3    0    1   17    1    0.050729   -0.001389
   -3    0    1   18    1   -0.023423   -0.000090
   -3    0    1    1    2   -0.003698   -0.000098
   -3    0    1    2    2    0.000098   -0.000003
   -3    0    1    3    2   -0.000188    0.000131
   -3    0    1    4    2   -0.000374    0.000030
   -3    0    1    5    2    0.000003    0.000001
   -3    0    1    6    2    0.000094   -0.000120
   -3    0    1    7    2    0.007593   -0.000350
   -3    0    1    8    2    0.000373   -0.000005
   -3    0    1    9    2   -0.000273   -0.000003
   -3    0    1   10    2   -0.000042    0.000052
   -3    0    1   11    2   -0.000113    0.000022
   -3    0    1   12    2   -0.000644    0.000007
   -3    0    1   13    2   -0.000079    0.000098
   -3    0    1   14    2    0.000327    0.000140
   -3    0    1   15    2   -0.001345   -0.000306
   -3    0    1   16    2   -0.001823   -0.000063
   -3    0    1   17    2   -0.010212    0.000022
   -3    0    1   18    2    0.003292   -0.000038
   -3    0    1    1    3   -0.001344   -0.000080
   -3    0    1    2    3   -0.000169   -0.000067
   -3    0    1    3    3   -0.000201   -0.000024
   -3    0    1    4    3    0.000460   -0.000064
   -3    0    1    5    3   -0.000131   -0.000062
   -3    0    1    6    3    0.000127    0.000030
   -3    0    1    7    3   -0.018770    0.000992
   -3    0    1    8    3   -0.000158    0.000061
   -3    0    1    9    3   -0.000550   -0.000009
   -3    0    1   10    3   -0.000793   -0.000105
   -3    0    1   11    3   -0.000518   -0.000057
   -3    0    1   12    3   -0.000051    0.000117
   -3    0    1   13    3   -0.000388    0.000135
   -3    0    1   14    3   -0.002541   -0.000236
   -3    0    1   15    3    0.000947    0.000150
   -3    0    1   16    3   -0.006065    0.000455
   -3    0    1   17    3    0.049388   -0.000392
   -3    0    1   18    3   -0.001371   -0.000135
   -3    0    1    1    4   -0.008366    0.000484
   -3    0    1    2    4   -0.000143    0.000004
   -3    0    1    3    4   -0.000006   -0.000053
   -3    0    1    4    4    0.000215    0.000046
   -3    0    1    5    4    0.000154    0.000016
   -3    0    1    6    4   -0.000608   -0.000012
   -3    0    1    7    4    0.005470   -0.000311
   -3    0    1    8    4   -0.000082   -0.000037
   -3    0    1    9    4   -0.000182    0.000093
   -3    0    1   10    4    0.000328    0.000009
   -3    0    1   11    4    0.000285   -0.000071
   -3    0    1   12    4    0.000151   -0.000003
   -3    0    1   13    4   -0.001398    0.000076
   -3    0    1   14    4    0.000486    0.000033
   -3    0    1   15    4    0.002476    0.000011
   -3    0    1   16    4    0.016758    0.000303
   -3    0    1   17    4   -0.010810   -0.000315
   -3    0    1   18    4   -0.012595   -0.000173
   -3    0    1    1    5    0.004348   -0.000045
   -3    0    1    2    5    0.000054   -0.000003
   -3    0    1    3    5   -0.000022    0.000049
   -3    0    1    4    5    0.000416    0.000010
   -3    0    1    5    5    0.000184    0.000002
   -3    0    1    6    5   -0.000193   -0.000057
   -3    0    1    7    5   -0.002873    0.000148
   -3    0    1    8    5   -0.000265    0.000005
   -3    0    1    9    5   -0.000311    0.000021
   -3    0    1   10    5    0.000461    0.000021
   -3    0    1   11    5   -0.000395   -0.000004
   -3    0    1   12    5    0.000091   -0.000010
   -3    0    1   13    5   -0.000671    0.000030
   -3    0    1   14    5    0.001518    0.000117
   -3    0    1   15    5   -0.000735   -0.000094
   -3    0    1   16    5    0.009662   -0.000024
   -3    0    1   17    5   -0.002388    0.000023
   -3    0    1   18    5    0.000094   -0.000109
   -3    0    1    1    6   -0.003025    0.000191
   -3    0    1    2    6   -0.000014    0.000081
   -3    0    1    3    6    0.000264    0.000011
   -3    0    1    4    6   -0.000262    0.000034
   -3    0    1    5    6    0.000156    0.000067
   -3    0    1    6    6    0.001199   -0.000046
   -3    0    1    7    6    0.015321   -0.000833
   -3    0    1    8    6   -0.001081   -0.000028
   -3    0    1    9    6   -0.000027    0.000060
   -3    0    1   10    6   -0.000021    0.000025
   -3    0    1   11    6    0.000012    0.000034
   -3    0    1   12    6   -0.000694   -0.000064
   -3    0    1   13    6   -0.000519    0.000119
   -3    0    1   14    6    0.000875    0.000041
   -3    0    1   15    6   -0.003231   -0.000175
   -3    0    1   16    6    0.000002   -0.000421
   -3    0    1   17    6   -0.008747    0.000357
   -3    0    1   18    6    0.008016   -0.000133
   -3    0    1    1    7    0.028159    0.001105
   -3    0    1    2    7   -0.012083   -0.000492
   -3    0    1    3    7   -0.006945    0.001369
   -3    0    1    4    7    0.017824   -0.000482
   -3    0    1    5    7    0.009669   -0.000119
   -3    0    1    6    7   -0.035328   -0.001178
   -3    0    1    7    7   -0.025166   -0.001176
   -3    0    1    8    7   -0.004312    0.000077
   -3    0    1    9    7    0.003629   -0.001760
   -3    0    1   10    7   -0.005402   -0.000254
   -3    0    1   11    7    0.002128   -0.000172
   -3    0    1   12    7   -0.002071   -0.001043
   -3    0    1   13    7   -0.000847   -0.001100
   -3    0    1   14    7    0.019982   -0.002117
   -3    0    1   15    7   -0.001227   -0.000405
   -3    0    1   16    7   -0.014756   -0.001114
   -3    0    1   17    7   -0.014160    0.003547
   -3    0    1   18    7    0.041908   -0.000865
   -3    0    1    1    8   -0.005852    0.000100
   -3    0    1    2    8    0.001191   -0.000014
   -3    0    1    3    8    0.002089    0.000073
   -3    0    1    4    8   -0.000918   -0.000049
   -3    0    1    5    8   -0.000178   -0.000010
   -3    0    1    6    8    0.001232   -0.000029
   -3    0    1    7    8   -0.004995    0.000000
   -3    0    1    8    8    0.000060   -0.000005
   -3    0    1    9    8   -0.000080   -0.000068
   -3    0    1   10    8   -0.000337   -0.000035
   -3    0    1   11    8   -0.000092   -0.000013
   -3    0    1   12    8   -0.000063   -0.000015
   -3    0    1   13    8   -0.001020    0.000125
   -3    0    1   14    8   -0.000872   -0.000155
   -3    0    1   15    8   -0.001158   -0.000030
   -3    0    1   16    8   -0.000085   -0.000112
   -3    0    1   17    8   -0.000506    0.000236
   -3    0    1   18    8   -0.000291   -0.000049
   -3    0    1    1    9    0.000600   -0.000145
   -3    0    1    2    9    0.001854    0.000072
   -3    0    1    3    9   -0.000358   -0.000123
   -3    0    1    4    9   -0.001509    0.000011
   -3    0    1    5    9   -0.002654    0.000017
   -3    0    1    6    9    0.001111    0.000028
   -3    0    1    7    9   -0.002015    0.001445
   -3    0    1    8    9   -0.000178    0.000022
   -3    0    1    9    9    0.000319   -0.000030
   -3    0    1   10    9    0.000094    0.000006
   -3    0    1   11    9   -0.000237   -0.000054
   -3    0    1   12    9    0.000203   -0.000003
   -3    0    1   13    9    0.004693    0.000353
   -3    0    1   14    9   -0.005468   -0.000104
   -3    0    1   15    9    0.002278    0.000002
   -3    0    1   16    9    0.001992    0.000349
   -3    0    1   17    9   -0.001473   -0.000347
   -3    0    1   18    9   -0.001590    0.000057
   -3    0    1    1   10    0.001144   -0.000725
   -3    0    1    2   10    0.000160   -0.000041
   -3    0    1    3   10   -0.001213   -0.000000
   -3    0    1    4   10   -0.001070    0.000090
   -3    0    1    5   10   -0.000592    0.000027
   -3    0    1    6   10    0.000545   -0.000029
   -3    0    1    7   10   -0.007132    0.000555
   -3    0    1    8   10   -0.000095    0.000003
   -3    0    1    9   10   -0.000283    0.000095
   -3    0    1   10   10    0.000137   -0.000034
   -3    0    1   11   10    0.000427   -0.000086
   -3    0    1   12   10   -0.000276    0.000017
   -3    0    1   13   10   -0.004699   -0.000161
   -3    0    1   14   10   -0.002061    0.000016
   -3    0    1   15   10    0.005022    0.000169
   -3    0    1   16   10   -0.001676   -0.000012
   -3    0    1   17   10    0.001276   -0.000045
   -3    0    1   18   10    0.001704    0.000094
   -3    0    1    1   11    0.006975   -0.000009
   -3    0    1    2   11   -0.000060    0.000015
   -3    0    1    3   11   -0.002994   -0.000029
   -3    0    1    4   11   -0.000144    0.000040
   -3    0    1    5   11    0.000503    0.000029
   -3    0    1    6   11    0.000273   -0.000037
   -3    0    1    7   11    0.003362    0.000323
   -3    0    1    8   11   -0.000038    0.000008
   -3    0    1    9   11   -0.000164    0.000090
   -3    0    1   10   11    0.000484    0.000015
   -3    0    1   11   11    0.000069    0.000005
   -3    0    1   12   11   -0.000107    0.000042
   -3    0    1   13   11   -0.002147   -0.000350
   -3    0    1   14   11    0.004251    0.000329
   -3    0    1   15   11    0.000317    0.000045
   -3    0    1   16   11   -0.001861   -0.000015
   -3    0    1   17   11    0.001358   -0.000169
   -3    0    1   18   11    0.000784    0.000091
   -3    0    1    1   12   -0.024370    0.000026
   -3    0    1    2   12    0.000603   -0.000013
   -3    0    1    3   12   -0.000931    0.000025
   -3    0    1    4   12    0.001038    0.000007
   -3    0    1    5   12    0.001665   -0.000002
   -3    0    1    6   12    0.000754   -0.000067
   -3    0    1    7   12   -0.005190    0.001193
   -3    0    1    8   12   -0.000027    0.000026
   -3    0    1    9   12    0.000187   -0.000026
   -3    0    1   10   12   -0.000197   -0.000058
   -3    0    1   11   12    0.000096   -0.000066
   -3    0    1   12   12    0.001063    0.000036
   -3    0    1   13   12    0.000669    0.000117
   -3    0    1   14   12    0.005106   -0.000104
   -3    0    1   15   12   -0.001856    0.000097
   -3    0    1   16   12   -0.001378    0.000128
   -3    0    1   17   12    0.001138   -0.000041
   -3    0    1   18   12   -0.001328   -0.000057
   -3    0    1    1   13   -0.018780   -0.000426
   -3    0    1    2   13    0.000550   -0.000313
   -3    0    1    3   13   -0.007824   -0.000160
   -3    0    1    4   13    0.006833    0.000312
   -3    0    1    5   13    0.003082   -0.000050
   -3    0    1    6   13   -0.005274   -0.000146
   -3    0    1    7   13    0.023976   -0.000505
   -3    0    1    8   13    0.000271    0.000105
   -3    0    1    9   13   -0.000892   -0.000291
   -3    0    1   10   13    0.000682    0.000207
   -3    0    1   11   13    0.001140    0.000173
   -3    0    1   12   13    0.001127    0.000065
   -3    0    1   13   13   -0.005332   -0.000427
   -3    0    1   14   13   -0.001525   -0.000300
   -3    0    1   15   13   -0.003239    0.000330
   -3    0    1   16   13    0.012263    0.000540
   -3    0    1   17   13   -0.001464   -0.000620
   -3    0    1   18   13    0.008509    0.000326
   -3    0    1    1   14   -0.022622   -0.000696
   -3    0    1    2   14    0.001029    0.000102
   -3    0    1    3   14    0.005337    0.000404
   -3    0    1    4   14   -0.003595   -0.000311
   -3    0    1    5   14   -0.003948   -0.000114
   -3    0    1    6   14   -0.002331    0.000115
   -3    0    1    7   14    0.003123    0.003307
   -3    0    1    8   14   -0.000692   -0.000002
   -3    0    1    9   14    0.001008    0.000196
   -3    0    1   10   14    0.000250   -0.000350
   -3    0    1   11   14   -0.001850   -0.000382
   -3    0    1   12   14   -0.000048   -0.000071
   -3    0    1   13   14    0.000257    0.000426
   -3    0    1   14   14    0.012321   -0.000224
   -3    0    1   15   14   -0.008143   -0.000115
   -3    0    1   16   14    0.006822   -0.000336
   -3    0    1   17   14   -0.017369    0.000275
   -3    0    1   18   14    0.007486    0.000016
   -3    0    1    1   15    0.009130    0.000801
   -3    0    1    2   15    0.000643    0.000280
   -3    0    1    3   15    0.000669   -0.000264
   -3    0    1    4   15   -0.005886    0.000113
   -3    0    1    5   15   -0.000305    0.000251
   -3    0    1    6   15    0.004525   -0.000205
   -3    0    1    7   15   -0.039030   -0.000240
   -3    0    1    8   15    0.000861   -0.000115
   -3    0    1    9   15    0.000448    0.000034
   -3    0    1   10   15   -0.001899    0.000151
   -3    0    1   11   15   -0.000502    0.000216
   -3    0    1   12   15    0.002017   -0.000076
   -3    0    1   13   15   -0.001452    0.000436
   -3    0    1   14   15   -0.006341   -0.000269
   -3    0    1   15   15    0.012519   -0.000035
   -3    0    1   16   15    0.002612    0.000096
   -3    0    1   17   15    0.016581    0.000430
   -3    0    1   18   15   -0.007553   -0.000788
   -3    0    1    1   16    0.025904    0.000454
   -3    0    1    2   16    0.004275   -0.000331
   -3    0    1    3   16   -0.002981    0.000224
   -3    0    1    4   16   -0.018195    0.000405
   -3    0    1    5   16   -0.000365    0.000006
   -3    0    1    6   16    0.008985   -0.000367
   -3    0    1    7   16   -0.018206    0.002936
   -3    0    1    8   16    0.001072    0.000250
   -3    0    1    9   16   -0.006883   -0.000443
   -3    0    1   10   16    0.005140   -0.000032
   -3    0    1   11   16    0.002866   -0.000097
   -3    0    1   12   16   -0.004969    0.000080
   -3    0    1   13   16   -0.015449   -0.000087
   -3    0    1   14   16    0.015067   -0.000382
   -3    0    1   15   16    0.020869    0.000095
   -3    0    1   16   16   -0.001853    0.000279
   -3    0    1   17   16   -0.000902   -0.000771
   -3    0    1   18   16   -0.005820    0.000361
   -3    0    1    1   17   -0.021694    0.000764
   -3    0    1    2   17   -0.001020    0.000111
   -3    0    1    3   17    0.005935   -0.000162
   -3    0    1    4   17    0.003853   -0.000164
   -3    0    1    5   17    0.000988   -0.000100
   -3    0    1    6   17   -0.005177    0.000253
   -3    0    1    7   17   -0.011023   -0.005189
   -3    0    1    8   17    0.001127   -0.000250
   -3    0    1    9   17    0.004660    0.000247
   -3    0    1   10   17   -0.001259    0.000403
   -3    0    1   11   17   -0.005181    0.000452
   -3    0    1   12   17   -0.005076    0.000006
   -3    0    1   13   17    0.035146   -0.000214
   -3    0    1   14   17    0.020033   -0.000341
   -3    0    1   15   17   -0.050789    0.000557
   -3    0    1   16   17   -0.004087   -0.000596
   -3    0    1   17   17    0.011672    0.000731
   -3    0    1   18   17   -0.002730   -0.000063
   -3    0    1    1   18   -0.067729    0.000880
   -3    0    1    2   18   -0.006726    0.000200
   -3    0    1    3   18   -0.004563    0.000091
   -3    0    1    4   18    0.013932   -0.000282
   -3    0    1    5   18    0.002794    0.000138
   -3    0    1    6   18   -0.004483    0.000175
   -3    0    1    7   18    0.008596    0.000130
   -3    0    1    8   18   -0.000050   -0.000053
   -3    0    1    9   18    0.000289    0.000043
   -3    0    1   10   18   -0.005296   -0.000280
   -3    0    1   11   18    0.001119   -0.000048
   -3    0    1   12   18    0.003560   -0.000257
   -3    0    1   13   18    0.004402   -0.000320
   -3    0    1   14   18   -0.018526    0.000862
   -3    0    1   15   18   -0.017687   -0.001229
   -3    0    1   16   18    0.002190    0.000144
   -3    0    1   17   18   -0.011180    0.000006
   -3    0    1   18   18    0.013141   -0.000221
   -3    0    2    1    1   -0.034541   -0.000326
   -3    0    2    2    1   -0.001098    0.000182
   -3    0    2    3    1    0.028665   -0.000534
   -3    0    2    4    1   -0.022486   -0.000386
   -3    0    2    5    1   -0.008691    0.000125
   -3    0    2    6    1    0.006252    0.000522
   -3    0    2    7    1   -0.005313   -0.000480
   -3    0    2    8    1   -0.002574    0.000114
   -3    0    2    9    1   -0.003450    0.001109
   -3    0    2   10    1    0.002377   -0.000744
   -3    0    2   11    1    0.001263    0.000071
   -3    0    2   12    1   -0.013317   -0.000221
   -3    0    2   13    1    0.010790    0.000175
   -3    0    2   14    1   -0.026400    0.000726
   -3    0    2   15    1    0.034109    0.000044
   -3    0    2   16    1   -0.009527    0.001386
   -3    0    2   17    1    0.016234   -0.000659
   -3    0    2   18    1   -0.001575   -0.000599
   -3    0    2    1    2   -0.003034    0.000052
   -3    0    2    2    2    0.000284    0.000012
   -3    0    2    3    2    0.000406    0.000067
   -3    0    2    4    2   -0.000922    0.000022
   -3    0    2    5    2    0.000214    0.000018
   -3    0    2    6    2    0.001431   -0.000087
   -3    0    2    7    2   -0.002476    0.000402
   -3    0    2    8    2    0.000019    0.000008
   -3    0    2    9    2    0.000087   -0.000024
   -3    0    2   10    2   -0.000115   -0.000068
   -3    0    2   11    2   -0.000088   -0.000028
   -3    0    2   12    2    0.000181   -0.000003
   -3    0    2   13    2    0.000338    0.000281
   -3    0    2   14    2    0.000644   -0.000310
   -3    0    2   15    2   -0.000638   -0.000019
   -3    0    2   16    2   -0.001577    0.000162
   -3    0    2   17    2    0.001143    0.000121
   -3    0    2   18    2   -0.000302   -0.000186
   -3    0    2    1    3    0.004637    0.000084
   -3    0    2    2    3   -0.000027   -0.000084
   -3    0    2    3    3   -0.001187   -0.000017
   -3    0    2    4    3    0.000979    0.000025
   -3    0    2    5    3    0.000542   -0.000019
   -3    0    2    6    3   -0.000267   -0.000032
   -3    0    2    7    3   -0.005175   -0.001784
   -3    0    2    8    3   -0.000004   -0.000019
   -3    0    2    9    3   -0.000711   -0.000063
   -3    0    2   10    3    0.000121    0.000052
   -3    0    2   11    3    0.000099    0.000113
   -3    0    2   12    3   -0.000249    0.000021
   -3    0    2   13    3    0.000705   -0.000175
   -3    0    2   14    3   -0.000106    0.000004
   -3    0    2   15    3    0.001101    0.000119
   -3    0    2   16    3   -0.000537   -0.000338
   -3    0    2   17    3    0.003093    0.000226
   -3    0    2   18    3    0.003894    0.000020
   -3    0    2    1    4   -0.016511    0.000046
   -3    0    2    2    4   -0.001191   -0.000030
   -3    0    2    3    4   -0.000035    0.000060
   -3    0    2    4    4    0.001968   -0.000048
   -3    0    2    5    4    0.001466   -0.000034
   -3    0    2    6    4   -0.001178    0.000017
   -3    0    2    7    4    0.006369   -0.000869
   -3    0    2    8    4   -0.000182    0.000010
   -3    0    2    9    4    0.000103   -0.000024
   -3    0    2   10    4   -0.000233    0.000050
   -3    0    2   11    4    0.000246    0.000043
   -3    0    2   12    4   -0.000217    0.000018
   -3    0    2   13    4    0.001344   -0.000129
   -3    0    2   14    4    0.000160    0.000270
   -3    0    2   15    4   -0.003100   -0.000283
   -3    0    2   16    4    0.002164    0.000044
   -3    0    2   17    4   -0.002080   -0.000236
   -3    0    2   18    4   -0.000089    0.000211
   -3    0    2    1    5   -0.003233    0.000309
   -3    0    2    2    5    0.000265   -0.000001
   -3    0    2    3    5    0.000658    0.000011
   -3    0    2    4    5    0.000764   -0.000010
   -3    0    2    5    5    0.000312   -0.000010
   -3    0    2    6    5   -0.000114   -0.000016
   -3    0    2    7    5   -0.000381    0.000322
   -3    0    2    8    5   -0.000074    0.000008
   -3    0    2    9    5    0.000061    0.000002
   -3    0    2   10    5   -0.000055    0.000000
   -3    0    2   11    5   -0.000184   -0.000015
   -3    0    2   12    5    0.000045   -0.000016
   -3    0    2   13    5    0.000582    0.000094
   -3    0    2   14    5    0.000205   -0.000035
   -3    0    2   15    5   -0.002351   -0.000071
   -3    0    2   16    5    0.001366    0.000080
   -3    0    2   17    5   -0.001301   -0.000066
   -3    0    2   18    5   -0.000465   -0.000008
   -3    0    2    1    6   -0.012500    0.000479
   -3    0    2    2    6    0.001329    0.000059
   -3    0    2    3    6    0.000747   -0.000001
   -3    0    2    4    6   -0.001815    0.000041
   -3    0    2    5    6   -0.000352    0.000052
   -3    0    2    6    6    0.001899   -0.000020
   -3    0    2    7    6   -0.009036    0.002337
   -3    0    2    8    6    0.000318    0.000020
   -3    0    2    9    6   -0.000148    0.000019
   -3    0    2   10    6   -0.000123   -0.000060
   -3    0    2   11    6   -0.000208   -0.000074
   -3    0    2   12    6    0.000135   -0.000037
   -3    0    2   13    6    0.000761    0.000203
   -3    0    2   14    6    0.002596   -0.000071
   -3    0    2   15    6   -0.001309   -0.000013
   -3    0    2   16    6   -0.000324    0.000123
   -3    0    2   17    6   -0.001590   -0.000076
   -3    0    2   18    6    0.001307   -0.000149
   -3    0    2    1    7    0.004742   -0.002078
   -3    0    2    2    7    0.004968   -0.000139
   -3    0    2    3    7    0.004383   -0.001886
   -3    0    2    4    7    0.000712   -0.000776
   -3    0    2    5    7    0.015033    0.000133
   -3    0    2    6    7   -0.013450    0.002870
   -3    0    2    7    7   -0.036070    0.003677
   -3    0    2    8    7   -0.001096    0.000055
   -3    0    2    9    7    0.023745   -0.000758
   -3    0    2   10    7   -0.022480    0.000495
   -3    0    2   11    7   -0.000097   -0.000132
   -3    0    2   12    7    0.002543   -0.000861
   -3    0    2   13    7    0.045024   -0.001277
   -3    0    2   14    7    0.049385   -0.001161
   -3    0    2   15    7   -0.045319    0.000656
   -3    0    2   16    7    0.008119   -0.002798
   -3    0    2   17    7   -0.026989    0.003606
   -3    0    2   18    7    0.041032   -0.000035
   -3    0    2    1    8    0.000353   -0.000300
   -3    0    2    2    8    0.000838   -0.000007
   -3    0    2    3    8    0.000773   -0.000102
   -3    0    2    4    8    0.002244    0.000041
   -3    0    2    5    8   -0.000890    0.000004
   -3    0    2    6    8   -0.000459    0.000033
   -3    0    2    7    8   -0.000941   -0.000007
   -3    0    2    8    8    0.000445   -0.000004
   -3    0    2    9    8    0.000939   -0.000039
   -3    0    2   10    8   -0.000975   -0.000026
   -3    0    2   11    8   -0.000193   -0.000016
   -3    0    2   12    8    0.002303   -0.000028
   -3    0    2   13    8   -0.005232    0.000021
   -3    0    2   14    8   -0.003931   -0.000183
   -3    0    2   15    8    0.003255    0.000185
   -3    0    2   16    8    0.000578   -0.000192
   -3    0    2   17    8    0.000283    0.000166
   -3    0    2   18    8   -0.000595    0.000138
   -3    0    2    1    9    0.018036    0.000124
   -3    0    2    2    9    0.000378   -0.000088
   -3    0    2    3    9   -0.001103   -0.000018
   -3    0    2    4    9   -0.000878   -0.000014
   -3    0    2    5    9    0.000906   -0.000002
   -3    0    2    6    9    0.000458   -0.000018
   -3    0    2    7    9    0.013420    0.000799
   -3    0    2    8    9    0.000697    0.000061
   -3    0    2    9    9   -0.001590    0.000012
   -3    0    2   10    9    0.000405   -0.000039
   -3    0    2   11    9    0.001223   -0.000102
   -3    0    2   12    9   -0.000186    0.000043
   -3    0    2   13    9   -0.005701   -0.000235
   -3    0    2   14    9    0.000626    0.000152
   -3    0    2   15    9    0.004909    0.000143
   -3    0    2   16    9    0.000565    0.000054
   -3    0    2   17    9   -0.000244   -0.000163
   -3    0    2   18    9    0.000609    0.000078
   -3    0    2    1   10   -0.013852   -0.000437
   -3    0    2    2   10    0.001529   -0.000066
   -3    0    2    3   10   -0.000448    0.000071
   -3    0    2    4   10   -0.000020    0.000106
   -3    0    2    5   10   -0.000250    0.000014
   -3    0    2    6   10   -0.000729   -0.000160
   -3    0    2    7   10   -0.017423    0.001073
   -3    0    2    8   10   -0.001312    0.000040
   -3    0    2    9   10   -0.000237   -0.000015
   -3    0    2   10   10    0.001708   -0.000014
   -3    0    2   11   10    0.001433   -0.000026
   -3    0    2   12   10   -0.000693    0.000046
   -3    0    2   13   10   -0.000979    0.000413
   -3    0    2   14   10   -0.002597   -0.000091
   -3    0    2   15   10    0.005883   -0.000237
   -3    0    2   16   10    0.000766    0.000251
   -3    0    2   17   10    0.000700   -0.000270
   -3    0    2   18   10   -0.002540    0.000007
   -3    0    2    1   11    0.005694    0.000198
   -3    0    2    2   11   -0.000760   -0.000034
   -3    0    2    3   11    0.001876    0.000174
   -3    0    2    4   11    0.000787    0.000108
   -3    0    2    5   11   -0.000277   -0.000000
   -3    0    2    6   11    0.001063   -0.000220
   -3    0    2    7   11   -0.000061    0.000339
   -3    0    2    8   11   -0.000125   -0.000010
   -3    0    2    9   11    0.001020    0.000055
   -3    0    2   10   11    0.001657    0.000018
   -3    0    2   11   11   -0.000002   -0.000008
   -3    0    2   12   11   -0.000143    0.000031
   -3    0    2   13   11   -0.004038    0.000320
   -3    0    2   14   11   -0.009570    0.000037
   -3    0    2   15   11   -0.000576   -0.000443
   -3    0    2   16   11    0.000828    0.000201
   -3    0    2   17   11   -0.000933   -0.000110
   -3    0    2   18   11   -0.000778   -0.000174
   -3    0    2    1   12   -0.026820   -0.000274
   -3    0    2    2   12   -0.000868   -0.000063
   -3    0    2    3   12   -0.001172   -0.000026
   -3    0    2    4   12    0.001232    0.000042
   -3    0    2    5   12    0.001814   -0.000006
   -3    0    2    6   12   -0.000233   -0.000022
   -3    0    2    7   12   -0.014623    0.001213
   -3    0    2    8   12    0.001076   -0.000015
   -3    0    2    9   12    0.000553   -0.000043
   -3    0    2   10   12   -0.000765   -0.000005
   -3    0    2   11   12   -0.000566   -0.000006
   -3    0    2   12   12    0.001279   -0.000021
   -3    0    2   13   12    0.001606    0.000188
   -3    0    2   14   12   -0.001167   -0.000199
   -3    0    2   15   12    0.001695    0.000030
   -3    0    2   16   12    0.001759   -0.000027
   -3    0    2   17   12    0.002203    0.000203
   -3    0    2   18   12   -0.002356   -0.000022
   -3    0    2    1   13   -0.037113   -0.000769
   -3    0    2    2   13    0.001636    0.000024
   -3    0    2    3   13    0.000659    0.000235
   -3    0    2    4   13    0.004424   -0.000392
   -3    0    2    5   13    0.007234   -0.000037
   -3    0    2    6   13   -0.001712    0.000113
   -3    0    2    7   13    0.008318   -0.001041
   -3    0    2    8   13   -0.001347   -0.000041
   -3    0    2    9   13   -0.000215   -0.000093
   -3    0    2   10   13   -0.002290    0.000092
   -3    0    2   11   13   -0.000976    0.000176
   -3    0    2   12   13   -0.001050   -0.000092
   -3    0    2   13   13    0.007345   -0.000281
   -3    0    2   14   13    0.010431    0.000325
   -3    0    2   15   13   -0.017118   -0.000543
   -3    0    2   16   13   -0.007863   -0.000251
   -3    0    2   17   13   -0.002375    0.000626
   -3    0    2   18   13    0.003947   -0.000602
   -3    0    2    1   14   -0.020462   -0.000326
   -3    0    2    2   14    0.004607   -0.000008
   -3    0    2    3   14    0.000371   -0.000356
   -3    0    2    4   14   -0.007099   -0.000187
   -3    0    2    5   14    0.002208   -0.000166
   -3    0    2    6   14    0.009110    0.000381
   -3    0    2    7   14    0.008404    0.002404
   -3    0    2    8   14   -0.000227    0.000107
   -3    0    2    9   14   -0.000699   -0.000271
   -3    0    2   10   14    0.001000   -0.000122
   -3    0    2   11   14   -0.000390   -0.000162
   -3    0    2   12   14   -0.002619    0.000115
   -3    0    2   13   14   -0.004685   -0.000163
   -3    0    2   14   14   -0.011699   -0.000942
   -3    0    2   15   14    0.022845    0.001564
   -3    0    2   16   14   -0.001033    0.000363
   -3    0    2   17   14    0.007442   -0.000710
   -3    0    2   18   14   -0.006955    0.000634
   -3    0    2    1   15    0.011124   -0.000894
   -3    0    2    2   15   -0.000774   -0.000031
   -3    0    2    3   15    0.003589    0.000034
   -3    0    2    4   15   -0.008125    0.000639
   -3    0    2    5   15   -0.003512    0.000259
   -3    0    2    6   15   -0.007929   -0.000543
   -3    0    2    7   15   -0.040000    0.002449
   -3    0    2    8   15    0.001119   -0.000063
   -3    0    2    9   15   -0.001583    0.000174
   -3    0    2   10   15    0.003493   -0.000008
   -3    0    2   11   15    0.000994   -0.000162
   -3    0    2   12   15    0.002333   -0.000073
   -3    0    2   13   15   -0.004383    0.000379
   -3    0    2   14   15   -0.003746    0.000135
   -3    0    2   15   15    0.020949   -0.000802
   -3    0    2   16   15    0.003921   -0.000217
   -3    0    2   17   15   -0.006720    0.000063
   -3    0    2   18   15    0.000454    0.000203
   -3    0    2    1   16   -0.048220   -0.000713
   -3    0    2    2   16   -0.002064   -0.000268
   -3    0    2    3   16    0.001162   -0.000057
   -3    0    2    4   16   -0.000222    0.000275
   -3    0    2    5   16    0.000061   -0.000018
   -3    0    2    6   16   -0.003999   -0.000027
   -3    0    2    7   16   -0.062905    0.001360
   -3    0    2    8   16    0.006481   -0.000171
   -3    0    2    9   16    0.002035   -0.000000
   -3    0    2   10   16    0.006289   -0.000348
   -3    0    2   11   16    0.009052   -0.000190
   -3    0    2   12   16    0.001926   -0.000158
   -3    0    2   13   16   -0.011666    0.001231
   -3    0    2   14   16    0.005611   -0.001093
   -3    0    2   15   16    0.003755   -0.000803
   -3    0    2   16   16    0.007816   -0.000730
   -3    0    2   17   16   -0.000402    0.000182
   -3    0    2   18   16   -0.010343    0.000646
   -3    0    2    1   17    0.008515    0.001075
   -3    0    2    2   17    0.001491    0.000275
   -3    0    2    3   17    0.000974    0.000299
   -3    0    2    4   17   -0.001734   -0.000109
   -3    0    2    5   17   -0.000047    0.000056
   -3    0    2    6   17   -0.002385   -0.000198
   -3    0    2    7   17   -0.010688   -0.003639
   -3    0    2    8   17    0.003036   -0.000038
   -3    0    2    9   17    0.003124    0.000022
   -3    0    2   10   17   -0.005640    0.000426
   -3    0    2   11   17    0.004867    0.000445
   -3    0    2   12   17    0.003710    0.000094
   -3    0    2   13   17    0.032134   -0.000255
   -3    0    2   14   17    0.001852   -0.000398
   -3    0    2   15   17   -0.036993    0.000035
   -3    0    2   16   17   -0.002321    0.000586
   -3    0    2   17   17   -0.015789    0.000013
   -3    0    2   18   17    0.020428   -0.000595
   -3    0    2    1   18   -0.011543    0.000764
   -3    0    2    2   18   -0.000332    0.000143
   -3    0    2    3   18   -0.001172   -0.000084
   -3    0    2    4   18   -0.000401   -0.000145
   -3    0    2    5   18    0.000548    0.000038
   -3    0    2    6   18   -0.000287    0.000160
   -3    0    2    7   18    0.037236   -0.001000
   -3    0    2    8   18   -0.002991    0.000084
   -3    0    2    9   18    0.001105    0.000098
   -3    0    2   10   18   -0.012119   -0.000129
   -3    0    2   11   18   -0.006012   -0.000136
   -3    0    2   12   18   -0.007880   -0.000052
   -3    0    2   13   18   -0.008837   -0.000703
   -3    0    2   14   18   -0.002251    0.001141
   -3    0    2   15   18    0.010746    0.000303
   -3    0    2   16   18   -0.007688   -0.000334
   -3    0    2   17   18    0.011300    0.000297
   -3    0    2   18   18    0.016709   -0.000491
   -3    1    0    1    1   -0.019149   -0.003478
   -3    1    0    2    1   -0.004909    0.000427
   -3    1    0    3    1    0.009489   -0.000549
   -3    1    0    4    1   -0.015007   -0.000386
   -3    1    0    5    1    0.000258   -0.000005
   -3    1    0    6    1   -0.007529   -0.000186
   -3    1    0    7    1   -0.012198   -0.000895
   -3    1    0    8    1    0.004136   -0.000160
   -3    1    0    9    1    0.000753   -0.000388
   -3    1    0   10    1   -0.001252    0.000541
   -3    1    0   11    1   -0.002145    0.000067
   -3    1    0   12    1   -0.003326    0.000063
   -3    1    0   13    1    0.017428    0.001902
   -3    1    0   14    1   -0.028057   -0.000228
   -3    1    0   15    1    0.024498   -0.000996
   -3    1    0   16    1    0.006291    0.001394
   -3    1    0   17    1    0.055016   -0.000754
   -3    1    0   18    1   -0.087138    0.000305
   -3    1    0    1    2   -0.002452    0.000280
   -3    1    0    2    2    0.000169    0.000018
   -3    1    0    3    2   -0.000088   -0.000160
   -3    1    0    4    2   -0.000263   -0.000048
   -3    1    0    5    2   -0.000046   -0.000005
   -3    1    0    6    2    0.000370    0.000098
   -3    1    0    7    2    0.004238   -0.000009
   -3    1    0    8    2   -0.000397   -0.000001
   -3    1    0    9    2    0.000124   -0.000031
   -3    1    0   10    2    0.000054    0.000044
   -3    1    0   11    2    0.000178    0.000014
   -3    1    0   12    2    0.000198    0.000016
   -3    1    0   13    2   -0.000184   -0.000111
   -3    1    0   14    2   -0.000409    0.000113
   -3    1    0   15    2    0.000484    0.000160
   -3    1    0   16    2   -0.000684    0.000248
   -3    1    0   17    2    0.004294   -0.000158
   -3    1    0   18    2   -0.005375   -0.000048
   -3    1    0    1    3    0.015609   -0.000306
   -3    1    0    2    3    0.000077    0.000074
   -3    1    0    3    3    0.000957    0.000157
   -3    1    0    4    3    0.000040   -0.000026
   -3    1    0    5    3    0.000166    0.000004
   -3    1    0    6    3    0.000180    0.000021
   -3    1    0    7    3    0.003967   -0.000218
   -3    1    0    8    3    0.000010   -0.000059
   -3    1    0    9    3    0.000012    0.000118
   -3    1    0   10    3   -0.000065    0.000021
   -3    1    0   11    3    0.000930   -0.000061
   -3    1    0   12    3   -0.000455   -0.000068
   -3    1    0   13    3    0.000464    0.000057
   -3    1    0   14    3    0.000352    0.000067
   -3    1    0   15    3   -0.000712   -0.000017
   -3    1    0   16    3    0.018909   -0.000539
   -3    1    0   17    3   -0.012835    0.000285
   -3    1    0   18    3   -0.006564    0.000060
   -3    1    0    1    4   -0.014807   -0.000584
   -3    1    0    2    4   -0.000275   -0.000022
   -3    1    0    3    4    0.000314   -0.000020
   -3    1    0    4    4    0.000026    0.000058
   -3    1    0    5    4    0.000230    0.000029
   -3    1    0    6    4   -0.000235    0.000011
   -3    1    0    7    4    0.004911    0.001470
   -3    1    0    8    4    0.000001    0.000042
   -3    1    0    9    4   -0.000170   -0.000053
   -3    1    0   10    4    0.000181   -0.000101
   -3    1    0   11    4    0.000389    0.000011
   -3    1    0   12    4    0.000118   -0.000020
   -3    1    0   13    4    0.000909   -0.000262
   -3    1    0   14    4   -0.000533   -0.000087
   -3    1    0   15    4   -0.001699    0.000099
   -3    1    0   16    4   -0.013579   -0.000278
   -3    1    0   17    4   -0.007433    0.000068
   -3    1    0   18    4    0.013053    0.000378
   -3    1    0    1    5   -0.000875   -0.000107
   -3    1    0    2    5   -0.000075    0.000001
   -3    1    0    3    5    0.000063   -0.000076
   -3    1    0    4    5    0.000125    0.000004
   -3    1    0    5    5    0.000024    0.000014
   -3    1    0    6    5    0.000324    0.000065
   -3    1    0    7    5   -0.005373   -0.000096
   -3    1    0    8    5    0.000324   -0.000007
   -3    1    0    9    5    0.000553   -0.000036
   -3    1    0   10    5    0.000301   -0.000035
   -3    1    0   11    5    0.000352    0.000005
   -3    1    0   12    5   -0.000033    0.000012
   -3    1    0   13    5    0.000018   -0.000150
   -3    1    0   14    5    0.000601   -0.000028
   -3    1    0   15    5   -0.000834    0.000067
   -3    1    0   16    5   -0.003902    0.000048
   -3    1    0   17    5    0.010690   -0.000040
   -3    1    0   18    5    0.006350    0.000093
   -3    1    0    1    6   -0.001983   -0.000052
   -3    1    0    2    6    0.000499   -0.000113
   -3    1    0    3    6    0.000028   -0.000019
   -3    1    0    4    6   -0.000579    0.000006
   -3    1    0    5    6   -0.000026   -0.000046
   -3    1    0    6    6    0.000612    0.000006
   -3    1    0    7    6   -0.006951   -0.001080
   -3    1    0    8    6    0.000801    0.000024
   -3    1    0    9    6   -0.000811   -0.000054
   -3    1    0   10    6   -0.000255    0.000019
   -3    1    0   11    6    0.000094    0.000024
   -3    1    0   12    6   -0.000394    0.000083
   -3    1    0   13    6   -0.000801   -0.000165
   -3    1    0   14    6   -0.000869    0.000021
   -3    1    0   15    6   -0.001023    0.000221
   -3    1    0   16    6   -0.011364    0.000187
   -3    1    0   17    6    0.048500   -0.000010
   -3    1    0   18    6    0.008377   -0.000523
   -3    1    0    1    7   -0.012473   -0.000244
   -3    1    0    2    7   -0.005757    0.000073
   -3    1    0    3    7   -0.056646   -0.000802
   -3    1    0    4    7    0.030708   -0.000269
   -3    1    0    5    7    0.020325   -0.000188
   -3    1    0    6    7    0.008123   -0.000006
   -3    1    0    7    7   -0.028331   -0.002701
   -3    1    0    8    7   -0.002542   -0.000093
   -3    1    0    9    7    0.010323    0.001198
   -3    1    0   10    7   -0.013829   -0.000281
   -3    1    0   11    7    0.002840    0.000253
   -3    1    0   12    7   -0.004933    0.000696
   -3    1    0   13    7    0.030730   -0.000514
   -3    1    0   14    7    0.016815    0.002213
   -3    1    0   15    7   -0.018004    0.000014
   -3    1    0   16    7    0.019825    0.002222
   -3    1    0   17    7   -0.020669   -0.002769
   -3    1    0   18    7    0.016285   -0.000404
   -3    1    0    1    8   -0.004008   -0.000108
   -3    1    0    2    8    0.000359    0.000001
   -3    1    0    3    8   -0.002424   -0.000044
   -3    1    0    4    8    0.001859    0.000057
   -3    1    0    5    8    0.000248    0.000016
   -3    1    0    6    8    0.001358   -0.000039
   -3    1    0    7    8   -0.001852    0.000049
   -3    1    0    8    8    0.000040   -0.000000
   -3    1    0    9    8    0.000148    0.000047
   -3    1    0   10    8    0.000066    0.000021
   -3    1    0   11    8    0.000003    0.000012
   -3    1    0   12    8    0.000189    0.000001
   -3    1    0   13    8    0.000295   -0.000114
   -3    1    0   14    8   -0.003242    0.000071
   -3    1    0   15    8    0.004496    0.000036
   -3    1    0   16    8   -0.000168    0.000111
   -3    1    0   17    8   -0.000019   -0.000171
   -3    1    0   18    8   -0.000480   -0.000014
   -3    1    0    1    9   -0.041418   -0.000302
   -3    1    0    2    9   -0.001288    0.000014
   -3    1    0    3    9    0.002564    0.000048
   -3    1    0    4    9   -0.000627   -0.000034
   -3    1    0    5    9   -0.000774   -0.000023
   -3    1    0    6    9   -0.001227   -0.000046
   -3    1    0    7    9    0.011960   -0.001231
   -3    1    0    8    9   -0.000055   -0.000057
   -3    1    0    9    9    0.000621    0.000124
   -3    1    0   10    9    0.000054   -0.000036
   -3    1    0   11    9    0.000171    0.000029
   -3    1    0   12    9    0.000234   -0.000010
   -3    1    0   13    9   -0.003250    0.000354
   -3    1    0   14    9    0.005809   -0.000188
   -3    1    0   15    9   -0.002007   -0.000103
   -3    1    0   16    9   -0.002054    0.000078
   -3    1    0   17    9    0.000970    0.000284
   -3    1    0   18    9    0.000783   -0.000228
   -3    1    0    1   10    0.016508   -0.000397
   -3    1    0    2   10    0.000780   -0.000047
   -3    1    0    3   10    0.001293    0.000088
   -3    1    0    4   10   -0.001526   -0.000006
   -3    1    0    5   10   -0.000627   -0.000028
   -3    1    0    6   10   -0.001529   -0.000031
   -3    1    0    7   10   -0.014378   -0.000557
   -3    1    0    8   10   -0.000229   -0.000034
   -3    1    0    9   10    0.000098   -0.000143
   -3    1    0   10   10    0.000283    0.000129
   -3    1    0   11   10    0.000393    0.000118
   -3    1    0   12   10   -0.000017   -0.000036
   -3    1    0   13   10    0.005017    0.000123
   -3    1    0   14   10    0.001052    0.000095
   -3    1    0   15   10   -0.007719   -0.000328
   -3    1    0   16   10    0.002620   -0.000317
   -3    1    0   17   10   -0.001980    0.000088
   -3    1    0   18   10   -0.001525    0.000252
   -3    1    0    1   11    0.011901    0.000013
   -3    1    0    2   11   -0.000022   -0.000003
   -3    1    0    3   11   -0.001123   -0.000060
   -3    1    0    4   11    0.000251    0.000045
   -3    1    0    5   11    0.001218   -0.000007
   -3    1    0    6   11   -0.002971    0.000056
   -3    1    0    7   11    0.002212   -0.000275
   -3    1    0    8   11    0.000010   -0.000001
   -3    1    0    9   11    0.000127   -0.000133
   -3    1    0   10   11    0.000290    0.000026
   -3    1    0   11   11   -0.000005    0.000009
   -3    1    0   12   11    0.000355   -0.000052
   -3    1    0   13   11    0.000259    0.000122
   -3    1    0   14   11    0.003505   -0.000238
   -3    1    0   15   11   -0.000077    0.000077
   -3    1    0   16   11    0.001667   -0.000285
   -3    1    0   17   11    0.000299    0.000140
   -3    1    0   18   11   -0.001466    0.000206
   -3    1    0    1   12   -0.000067   -0.000676
   -3    1    0    2   12    0.001137    0.000040
   -3    1    0    3   12    0.000351   -0.000001
   -3    1    0    4   12   -0.001527    0.000021
   -3    1    0    5   12   -0.003415    0.000027
   -3    1    0    6   12    0.000493   -0.000024
   -3    1    0    7   12   -0.006796   -0.001145
   -3    1    0    8   12    0.000426   -0.000016
   -3    1    0    9   12    0.000378    0.000040
   -3    1    0   10   12   -0.000185    0.000058
   -3    1    0   11   12    0.000175    0.000061
   -3    1    0   12   12    0.000265   -0.000001
   -3    1    0   13   12    0.002505    0.000045
   -3    1    0   14   12   -0.005048    0.000017
   -3    1    0   15   12    0.005173   -0.000102
   -3    1    0   16   12   -0.000077    0.000052
   -3    1    0   17   12   -0.000895   -0.000192
   -3    1    0   18   12   -0.001717    0.000083
   -3    1    0    1   13    0.006619    0.000679
   -3    1    0    2   13   -0.001516    0.000357
   -3    1    0    3   13    0.006722   -0.000006
   -3    1    0    4   13   -0.007322   -0.000637
   -3    1    0    5   13   -0.001484   -0.000074
   -3    1    0    6   13    0.002949    0.000143
   -3    1    0    7   13   -0.007126    0.001711
   -3    1    0    8   13    0.000464    0.000058
   -3    1    0    9   13    0.000606   -0.000028
   -3    1    0   10   13   -0.002711    0.000013
   -3    1    0   11   13   -0.001298   -0.000073
   -3    1    0   12   13    0.000587    0.000070
   -3    1    0   13   13    0.006500    0.001529
   -3    1    0   14   13   -0.002592    0.000089
   -3    1    0   15   13   -0.004962   -0.000992
   -3    1    0   16   13   -0.000721    0.001100
   -3    1    0   17   13    0.007753   -0.001479
   -3    1    0   18   13    0.003713    0.000524
   -3    1    0    1   14   -0.040394   -0.000683
   -3    1    0    2   14    0.003648   -0.000112
   -3    1    0    3   14   -0.005136    0.000064
   -3    1    0    4   14   -0.001884    0.000230
   -3    1    0    5   14   -0.002800    0.000101
   -3    1    0    6   14    0.001351   -0.000235
   -3    1    0    7   14    0.009107   -0.004293
   -3    1    0    8   14    0.000925   -0.000191
   -3    1    0    9   14    0.000351    0.000051
   -3    1    0   10   14    0.001028    0.000401
   -3    1    0   11   14   -0.000053    0.000320
   -3    1    0   12   14    0.000092    0.000028
   -3    1    0   13   14   -0.001745   -0.000963
   -3    1    0   14   14    0.004981    0.001127
   -3    1    0   15   14   -0.001663   -0.000445
   -3    1    0   16   14   -0.000182   -0.001522
   -3    1    0   17   14   -0.003400    0.000470
   -3    1    0   18   14    0.009961   -0.000022
   -3    1    0    1   15    0.001034   -0.000686
   -3    1    0    2   15   -0.002151   -0.000333
   -3    1    0    3   15   -0.003229   -0.000102
   -3    1    0    4   15    0.006307    0.000429
   -3    1    0    5   15    0.000040   -0.000068
   -3    1    0    6   15   -0.008439   -0.000157
   -3    1    0    7   15   -0.019561    0.000291
   -3    1    0    8   15    0.000025    0.000103
   -3    1    0    9   15   -0.000120    0.000101
   -3    1    0   10   15    0.001489   -0.000212
   -3    1    0   11   15    0.001369   -0.000175
   -3    1    0   12   15    0.001304   -0.000037
   -3    1    0   13   15   -0.007283   -0.000073
   -3    1    0   14   15   -0.004000   -0.001004
   -3    1    0   15   15    0.009791    0.000756
   -3    1    0   16   15    0.003516    0.000856
   -3    1    0   17   15    0.005158   -0.000082
   -3    1    0   18   15    0.006700   -0.000268
   -3    1    0    1   16   -0.059188    0.001828
   -3    1    0    2   16    0.001682    0.000464
   -3    1    0    3   16   -0.008300   -0.000054
   -3    1    0    4   16    0.016251   -0.000305
   -3    1    0    5   16    0.007655    0.000106
   -3    1    0    6   16   -0.005034   -0.000021
   -3    1    0    7   16    0.006845    0.000661
   -3    1    0    8   16   -0.002646   -0.000004
   -3    1    0    9   16    0.004382   -0.000225
   -3    1    0   10   16   -0.005295   -0.000169
   -3    1    0   11   16    0.000156    0.000190
   -3    1    0   12   16    0.003639   -0.000231
   -3    1    0   13   16   -0.005484    0.001152
   -3    1    0   14   16   -0.054947   -0.000504
   -3    1    0   15   16    0.011160   -0.001168
   -3    1    0   16   16    0.006718    0.001489
   -3    1    0   17   16   -0.001006   -0.000809
[...]
    3    1   -2   16   14    0.035492    0.000018
    3    1   -2   17   14   -0.011043   -0.000821
    3    1   -2   18   14   -0.034687    0.000730
    3    1   -2    1   15   -0.002276   -0.001007
    3    1   -2    2   15   -0.000151   -0.000281
    3    1   -2    3   15    0.000008    0.000049
    3    1   -2    4   15    0.000976    0.000016
    3    1   -2    5   15    0.000991   -0.000051
    3    1   -2    6   15    0.000298   -0.000025
    3    1   -2    7   15    0.000515    0.000668
    3    1   -2    8   15   -0.002150   -0.000206
    3    1   -2    9   15    0.000343   -0.000036
    3    1   -2   10   15   -0.001030   -0.000112
    3    1   -2   11   15   -0.001642    0.000130
    3    1   -2   12   15   -0.000763   -0.000160
    3    1   -2   13   15    0.006755    0.000094
    3    1   -2   14   15    0.004602   -0.000635
    3    1   -2   15   15   -0.016668   -0.000358
    3    1   -2   16   15   -0.015460   -0.001682
    3    1   -2   17   15    0.002946    0.001343
    3    1   -2   18   15    0.025750    0.000639
    3    1   -2    1   16   -0.003327    0.001466
    3    1   -2    2   16   -0.001401    0.000190
    3    1   -2    3   16   -0.006451    0.000011
    3    1   -2    4   16   -0.003553    0.000017
    3    1   -2    5   16    0.000137    0.000090
    3    1   -2    6   16    0.003178   -0.000036
    3    1   -2    7   16    0.011350    0.000070
    3    1   -2    8   16    0.000039    0.000056
    3    1   -2    9   16   -0.001839    0.000107
    3    1   -2   10   16   -0.001226   -0.000193
    3    1   -2   11   16   -0.000815   -0.000108
    3    1   -2   12   16    0.000220    0.000075
    3    1   -2   13   16    0.005201    0.000496
    3    1   -2   14   16   -0.013969   -0.000577
    3    1   -2   15   16    0.003522    0.000575
    3    1   -2   16   16    0.003122    0.000653
    3    1   -2   17   16    0.002782   -0.000342
    3    1   -2   18   16    0.005083   -0.000295
    3    1   -2    1   17    0.007398   -0.001522
    3    1   -2    2   17   -0.000550   -0.000204
    3    1   -2    3   17   -0.007207   -0.000027
    3    1   -2    4   17    0.006711    0.000063
    3    1   -2    5   17    0.000588    0.000030
    3    1   -2    6   17   -0.006061    0.000175
    3    1   -2    7   17   -0.033357    0.001622
    3    1   -2    8   17   -0.000238    0.000077
    3    1   -2    9   17   -0.000487   -0.000050
    3    1   -2   10   17   -0.000911   -0.000087
    3    1   -2   11   17   -0.000174   -0.000149
    3    1   -2   12   17    0.000223   -0.000151
    3    1   -2   13   17   -0.010882   -0.000917
    3    1   -2   14   17    0.015359    0.000559
    3    1   -2   15   17   -0.015981    0.000176
    3    1   -2   16   17   -0.001628   -0.000989
    3    1   -2   17   17   -0.004668    0.000661
    3    1   -2   18   17    0.006979    0.000210
    3    1   -2    1   18   -0.011103    0.001625
    3    1   -2    2   18   -0.000068   -0.000030
    3    1   -2    3   18    0.010836    0.000194
    3    1   -2    4   18    0.000248    0.000133
    3    1   -2    5   18   -0.003293   -0.000125
    3    1   -2    6   18   -0.001203   -0.000316
    3    1   -2    7   18   -0.008705   -0.001869
    3    1   -2    8   18   -0.000042   -0.000118
    3    1   -2    9   18    0.001100   -0.000125
    3    1   -2   10   18    0.000703    0.000289
    3    1   -2   11   18   -0.000093    0.000203
    3    1   -2   12   18    0.000426   -0.000040
    3    1   -2   13   18   -0.004968    0.000850
    3    1   -2   14   18   -0.006186   -0.000720
    3    1   -2   15   18    0.004859   -0.000151
    3    1   -2   16   18    0.007549    0.000036
    3    1   -2   17   18    0.005566    0.000236
    3    1   -2   18   18   -0.015648   -0.000261
    4   -1   -1    1    1    0.049110   -0.000332
    4   -1   -1    2    1    0.003237   -0.000048
    4   -1   -1    3    1    0.009407   -0.000345
    4   -1   -1    4    1    0.010629   -0.000136
    4   -1   -1    5    1   -0.000404   -0.000159
    4   -1   -1    6    1    0.022233   -0.000004
    4   -1   -1    7    1    0.066366    0.000329
    4   -1   -1    8    1   -0.000549    0.000069
    4   -1   -1    9    1    0.013467    0.000808
    4   -1   -1   10    1    0.010097    0.000123
    4   -1   -1   11    1   -0.000467   -0.000086
    4   -1   -1   12    1   -0.009335    0.000316
    4   -1   -1   13    1   -0.000742    0.000261
    4   -1   -1   14    1   -0.029693    0.000369
    4   -1   -1   15    1   -0.017202    0.001414
    4   -1   -1   16    1    0.057766   -0.000315
    4   -1   -1   17    1    0.045719   -0.001427
    4   -1   -1   18    1    0.071190   -0.000202
    4   -1   -1    1    2    0.007445    0.000164
    4   -1   -1    2    2   -0.000171   -0.000002
    4   -1   -1    3    2    0.000266    0.000047
    4   -1   -1    4    2    0.000327    0.000005
    4   -1   -1    5    2    0.000010    0.000004
    4   -1   -1    6    2   -0.000799   -0.000043
    4   -1   -1    7    2    0.005946   -0.000315
    4   -1   -1    8    2   -0.000367   -0.000010
    4   -1   -1    9    2    0.000283    0.000105
    4   -1   -1   10    2    0.000378   -0.000050
    4   -1   -1   11    2    0.000022    0.000005
    4   -1   -1   12    2   -0.000652    0.000031
    4   -1   -1   13    2    0.002257    0.000108
    4   -1   -1   14    2   -0.001057   -0.000079
    4   -1   -1   15    2   -0.001136   -0.000073
    4   -1   -1   16    2   -0.002367    0.000177
    4   -1   -1   17    2    0.001423   -0.000186
    4   -1   -1   18    2    0.001407   -0.000066
    4   -1   -1    1    3    0.014577    0.000243
    4   -1   -1    2    3    0.000483   -0.000043
    4   -1   -1    3    3   -0.000457    0.000032
    4   -1   -1    4    3   -0.000216   -0.000053
    4   -1   -1    5    3    0.000423   -0.000009
    4   -1   -1    6    3    0.000858   -0.000050
    4   -1   -1    7    3   -0.001169    0.001771
    4   -1   -1    8    3    0.000827    0.000094
    4   -1   -1    9    3   -0.001686   -0.000041
    4   -1   -1   10    3   -0.000361    0.000024
    4   -1   -1   11    3    0.001805   -0.000103
    4   -1   -1   12    3    0.000020    0.000018
    4   -1   -1   13    3   -0.000714   -0.000180
    4   -1   -1   14    3   -0.002225    0.000765
    4   -1   -1   15    3    0.000697   -0.000331
    4   -1   -1   16    3    0.002114    0.000069
    4   -1   -1   17    3    0.003389   -0.000377
    4   -1   -1   18    3    0.002858    0.000034
    4   -1   -1    1    4    0.011587    0.000205
    4   -1   -1    2    4    0.000491   -0.000015
    4   -1   -1    3    4   -0.000266   -0.000094
    4   -1   -1    4    4   -0.000472    0.000052
    4   -1   -1    5    4   -0.000327    0.000023
    4   -1   -1    6    4    0.000928    0.000032
    4   -1   -1    7    4    0.001525   -0.000598
    4   -1   -1    8    4    0.000789    0.000010
    4   -1   -1    9    4   -0.000523    0.000014
    4   -1   -1   10    4   -0.001572    0.000113
    4   -1   -1   11    4   -0.001803    0.000051
    4   -1   -1   12    4   -0.000477    0.000037
    4   -1   -1   13    4   -0.001077   -0.000049
    4   -1   -1   14    4    0.001506    0.000019
    4   -1   -1   15    4   -0.002869    0.000375
    4   -1   -1   16    4    0.002033    0.000035
    4   -1   -1   17    4    0.003606   -0.000000
    4   -1   -1   18    4    0.002703   -0.000227
    4   -1   -1    1    5   -0.000440   -0.000024
    4   -1   -1    2    5    0.000008   -0.000008
    4   -1   -1    3    5    0.000343   -0.000054
    4   -1   -1    4    5   -0.000342    0.000032
    4   -1   -1    5    5   -0.000078    0.000006
    4   -1   -1    6    5    0.000039    0.000031
    4   -1   -1    7    5   -0.001963   -0.000252
    4   -1   -1    8    5   -0.000009    0.000002
    4   -1   -1    9    5    0.001157    0.000021
    4   -1   -1   10    5   -0.001023   -0.000006
    4   -1   -1   11    5   -0.000392    0.000015
    4   -1   -1   12    5   -0.000077    0.000051
    4   -1   -1   13    5   -0.000110   -0.000073
    4   -1   -1   14    5    0.000614    0.000004
    4   -1   -1   15    5   -0.000312    0.000084
    4   -1   -1   16    5   -0.000119    0.000103
    4   -1   -1   17    5   -0.001988   -0.000159
    4   -1   -1   18    5    0.001655    0.000005
    4   -1   -1    1    6    0.030408   -0.000160
    4   -1   -1    2    6   -0.000780    0.000005
    4   -1   -1    3    6    0.000648    0.000104
    4   -1   -1    4    6    0.000636    0.000001
    4   -1   -1    5    6   -0.000030   -0.000028
    4   -1   -1    6    6   -0.001342   -0.000038
    4   -1   -1    7    6   -0.027819   -0.000901
    4   -1   -1    8    6   -0.001343   -0.000125
    4   -1   -1    9    6    0.000715   -0.000001
    4   -1   -1   10    6    0.000716   -0.000002
    4   -1   -1   11    6    0.000136    0.000091
    4   -1   -1   12    6   -0.001937   -0.000043
    4   -1   -1   13    6   -0.003099    0.000245
    4   -1   -1   14    6    0.001844   -0.000418
    4   -1   -1   15    6    0.001959   -0.000229
    4   -1   -1   16    6    0.000293   -0.000143
    4   -1   -1   17    6    0.000168    0.000234
    4   -1   -1   18    6   -0.000224    0.000126
    4   -1   -1    1    7   -0.035858   -0.000413
    4   -1   -1    2    7   -0.004842   -0.000446
    4   -1   -1    3    7    0.000566    0.001135
    4   -1   -1    4    7   -0.003109    0.000931
    4   -1   -1    5    7   -0.000140   -0.000033
    4   -1   -1    6    7   -0.023454   -0.002035
    4   -1   -1    7    7    0.055123   -0.002492
    4   -1   -1    8    7    0.003473    0.000058
    4   -1   -1    9    7    0.010019    0.000329
    4   -1   -1   10    7    0.009308   -0.000358
    4   -1   -1   11    7   -0.000116   -0.000113
    4   -1   -1   12    7    0.027684   -0.000347
    4   -1   -1   13    7   -0.042137    0.001970
    4   -1   -1   14    7    0.015099   -0.000986
    4   -1   -1   15    7    0.021191   -0.002505
    4   -1   -1   16    7    0.003002    0.003500
    4   -1   -1   17    7   -0.030197   -0.001273
    4   -1   -1   18    7   -0.024445   -0.000057
    4   -1   -1    1    8   -0.005319   -0.000017
    4   -1   -1    2    8   -0.000254   -0.000010
    4   -1   -1    3    8    0.000340    0.000008
    4   -1   -1    4    8    0.000287    0.000001
    4   -1   -1    5    8   -0.000010   -0.000008
    4   -1   -1    6    8   -0.000973    0.000019
    4   -1   -1    7    8    0.003751    0.000015
    4   -1   -1    8    8    0.000231   -0.000009
    4   -1   -1    9    8    0.000455   -0.000050
    4   -1   -1   10    8    0.000391   -0.000032
    4   -1   -1   11    8   -0.000004    0.000003
    4   -1   -1   12    8   -0.000757    0.000014
    4   -1   -1   13    8    0.000238    0.000158
    4   -1   -1   14    8   -0.000719   -0.000214
    4   -1   -1   15    8   -0.000660   -0.000001
    4   -1   -1   16    8    0.004285    0.000234
    4   -1   -1   17    8   -0.001493    0.000005
    4   -1   -1   18    8   -0.001990   -0.000155
    4   -1   -1    1    9    0.009774   -0.001441
    4   -1   -1    2    9    0.000179   -0.000014
    4   -1   -1    3    9    0.000170    0.000116
    4   -1   -1    4    9    0.000569    0.000036
    4   -1   -1    5    9    0.000570    0.000005
    4   -1   -1    6    9    0.000851   -0.000007
    4   -1   -1    7    9    0.011690   -0.000373
    4   -1   -1    8    9    0.000117    0.000008
    4   -1   -1    9    9   -0.000654    0.000000
    4   -1   -1   10    9    0.000235    0.000006
    4   -1   -1   11    9    0.000659   -0.000023
    4   -1   -1   12    9    0.000484    0.000088
    4   -1   -1   13    9    0.001653   -0.000439
    4   -1   -1   14    9   -0.001017    0.000369
    4   -1   -1   15    9   -0.000404    0.000071
    4   -1   -1   16    9   -0.000734   -0.000375
    4   -1   -1   17    9   -0.000222    0.000136
    4   -1   -1   18    9   -0.001198    0.000110
    4   -1   -1    1   10    0.009622    0.000883
    4   -1   -1    2   10    0.000210    0.000100
    4   -1   -1    3   10    0.000605   -0.000096
    4   -1   -1    4   10    0.000257   -0.000074
    4   -1   -1    5   10   -0.000587   -0.000004
    4   -1   -1    6   10    0.000925    0.000033
    4   -1   -1    7   10    0.010751   -0.000302
    4   -1   -1    8   10    0.000046    0.000003
    4   -1   -1    9   10    0.000096   -0.000002
    4   -1   -1   10   10   -0.000491    0.000017
    4   -1   -1   11   10   -0.000523   -0.000002
    4   -1   -1   12   10    0.000399    0.000031
    4   -1   -1   13   10    0.001634    0.000053
    4   -1   -1   14   10   -0.000498    0.000028
    4   -1   -1   15   10   -0.000906    0.000070
    4   -1   -1   16   10   -0.000855   -0.000077
    4   -1   -1   17   10   -0.001346    0.000023
    4   -1   -1   18   10   -0.000302    0.000079
    4   -1   -1    1   11    0.000102   -0.000243
    4   -1   -1    2   11   -0.000003    0.000036
    4   -1   -1    3   11    0.000628   -0.000073
    4   -1   -1    4   11   -0.000636   -0.000050
    4   -1   -1    5   11   -0.000357    0.000016
    4   -1   -1    6   11    0.000083    0.000030
    4   -1   -1    7   11   -0.000163    0.000031
    4   -1   -1    8   11   -0.000008   -0.000008
    4   -1   -1    9   11    0.000591    0.000001
    4   -1   -1   10   11   -0.000616    0.000023
    4   -1   -1   11   11    0.000339    0.000006
    4   -1   -1   12   11   -0.000060   -0.000038
    4   -1   -1   13   11    0.000005    0.000153
    4   -1   -1   14   11    0.001752   -0.000148
    4   -1   -1   15   11   -0.001727    0.000035
    4   -1   -1   16   11   -0.000076    0.000002
    4   -1   -1   17   11    0.001645   -0.000140
    4   -1   -1   18   11   -0.001615    0.000138
    4   -1   -1    1   12   -0.016335   -0.000152
    4   -1   -1    2   12   -0.000120    0.000001
    4   -1   -1    3   12    0.000117    0.000027
    4   -1   -1    4   12   -0.000082   -0.000028
    4   -1   -1    5   12   -0.000041    0.000001
    4   -1   -1    6   12    0.000819    0.000028
    4   -1   -1    7   12    0.028912    0.000291
    4   -1   -1    8   12   -0.000482   -0.000007
    4   -1   -1    9   12    0.000447   -0.000082
    4   -1   -1   10   12    0.000296   -0.000026
    4   -1   -1   11   12   -0.000075    0.000012
    4   -1   -1   12   12   -0.000696    0.000024
    4   -1   -1   13   12   -0.001514    0.000175
    4   -1   -1   14   12   -0.000747   -0.000304
    4   -1   -1   15   12   -0.000719    0.000021
    4   -1   -1   16   12   -0.003886   -0.000278
    4   -1   -1   17   12    0.003966    0.000442
    4   -1   -1   18   12    0.002604    0.000003
    4   -1   -1    1   13    0.035639    0.000612
    4   -1   -1    2   13    0.000036   -0.000155
    4   -1   -1    3   13   -0.000636    0.000248
    4   -1   -1    4   13   -0.000562   -0.000020
    4   -1   -1    5   13    0.000139   -0.000027
    4   -1   -1    6   13    0.001054   -0.000264
    4   -1   -1    7   13   -0.020482   -0.002147
    4   -1   -1    8   13   -0.000541    0.000023
    4   -1   -1    9   13   -0.001263    0.000596
    4   -1   -1   10   13   -0.001122   -0.000061
    4   -1   -1   11   13   -0.000032   -0.000277
    4   -1   -1   12   13   -0.002893    0.000122
    4   -1   -1   13   13   -0.004248    0.000235
    4   -1   -1   14   13    0.010459    0.000316
    4   -1   -1   15   13    0.009665    0.000179
    4   -1   -1   16   13   -0.028508    0.001081
    4   -1   -1   17   13   -0.002228   -0.000004
    4   -1   -1   18   13    0.003825   -0.001300
    4   -1   -1    1   14   -0.016837    0.000166
    4   -1   -1    2   14    0.000337    0.000341
    4   -1   -1    3   14    0.002359   -0.000345
    4   -1   -1    4   14   -0.000403   -0.000155
    4   -1   -1    5   14   -0.002034    0.000114
    4   -1   -1    6   14    0.001344    0.000296
    4   -1   -1    7   14    0.010551    0.000617
    4   -1   -1    8   14   -0.000762    0.000065
    4   -1   -1    9   14    0.002583   -0.000450
    4   -1   -1   10   14    0.002543   -0.000040
    4   -1   -1   11   14   -0.000169    0.000012
    4   -1   -1   12   14    0.000835    0.000160
    4   -1   -1   13   14    0.009720   -0.000486
    4   -1   -1   14   14   -0.021024    0.000485
    4   -1   -1   15   14    0.013294   -0.000177
    4   -1   -1   16   14    0.010791    0.000494
    4   -1   -1   17   14   -0.028449   -0.000427
    4   -1   -1   18   14   -0.016164    0.000661
    4   -1   -1    1   15   -0.014190   -0.001155
    4   -1   -1    2   15    0.000171   -0.000040
    4   -1   -1    3   15   -0.000260    0.000137
    4   -1   -1    4   15    0.001690    0.000040
    4   -1   -1    5   15    0.001762   -0.000079
    4   -1   -1    6   15    0.001151    0.000021
    4   -1   -1    7   15    0.021607    0.000681
    4   -1   -1    8   15   -0.001083   -0.000169
    4   -1   -1    9   15    0.002128   -0.000054
    4   -1   -1   10   15    0.002100    0.000031
    4   -1   -1   11   15    0.000408    0.000232
    4   -1   -1   12   15   -0.000259   -0.000162
    4   -1   -1   13   15    0.009474    0.000160
    4   -1   -1   14   15    0.012365   -0.001037
    4   -1   -1   15   15   -0.020416    0.000423
    4   -1   -1   16   15    0.010488   -0.001300
    4   -1   -1   17   15   -0.018585    0.001362
    4   -1   -1   18   15   -0.026447    0.000365
    4   -1   -1    1   16   -0.126164   -0.000568
    4   -1   -1    2   16   -0.009320    0.000054
    4   -1   -1    3   16   -0.042292    0.000128
    4   -1   -1    4   16   -0.040088   -0.000099
    4   -1   -1    5   16   -0.001131   -0.000051
    4   -1   -1    6   16   -0.007548    0.000020
    4   -1   -1    7   16    0.035702    0.000745
    4   -1   -1    8   16   -0.000290    0.000048
    4   -1   -1    9   16   -0.001332    0.000278
    4   -1   -1   10   16   -0.001036   -0.000255
    4   -1   -1   11   16    0.000044   -0.000154
    4   -1   -1   12   16    0.000389    0.000219
    4   -1   -1   13   16    0.011224    0.001093
    4   -1   -1   14   16    0.013636   -0.000922
    4   -1   -1   15   16    0.013227    0.000657
    4   -1   -1   16   16   -0.008235    0.000871
    4   -1   -1   17   16    0.010928   -0.000008
    4   -1   -1   18   16    0.009805   -0.000654
    4   -1   -1    1   17   -0.133757   -0.000293
    4   -1   -1    2   17    0.004793   -0.000045
    4   -1   -1    3   17   -0.036662   -0.000194
    4   -1   -1    4   17   -0.013194    0.000186
    4   -1   -1    5   17   -0.004377    0.000073
    4   -1   -1    6   17   -0.046568    0.000271
    4   -1   -1    7   17   -0.017916   -0.000262
    4   -1   -1    8   17    0.000843   -0.000030
    4   -1   -1    9   17    0.001185    0.000149
    4   -1   -1   10   17    0.000006    0.000137
    4   -1   -1   11   17   -0.001565    0.000072
    4   -1   -1   12   17    0.001891   -0.000424
    4   -1   -1   13   17    0.006793   -0.000869
    4   -1   -1   14   17    0.022235    0.000774
    4   -1   -1   15   17   -0.007748    0.000004
    4   -1   -1   16   17    0.007966   -0.001229
    4   -1   -1   17   17   -0.020054    0.000388
    4   -1   -1   18   17    0.014207    0.000346
    4   -1   -1    1   18   -0.136674    0.002283
    4   -1   -1    2   18    0.005628   -0.000110
    4   -1   -1    3   18   -0.011822    0.000250
    4   -1   -1    4   18   -0.035766    0.000358
    4   -1   -1    5   18    0.004709   -0.000003
    4   -1   -1    6   18   -0.046785   -0.000489
    4   -1   -1    7   18   -0.013901   -0.000810
    4   -1   -1    8   18    0.000388   -0.000082
    4   -1   -1    9   18    0.000776   -0.000167
    4   -1   -1   10   18    0.001503    0.000135
    4   -1   -1   11   18    0.001418    0.000122
    4   -1   -1   12   18    0.001176   -0.000067
    4   -1   -1   13   18    0.004971    0.000832
    4   -1   -1   14   18   -0.006729   -0.000235
    4   -1   -1   15   18    0.024710   -0.000905
    4   -1   -1   16   18    0.008616    0.000236
    4   -1   -1   17   18    0.013464   -0.000186
    4   -1   -1   18   18   -0.019456    0.000336
