
             +---------------------------------------------------+
             |                                                   |
             |                   WANNIER90                       |
             |                                                   |
             +---------------------------------------------------+
             |                                                   |
             |        Welcome to the Maximally-Localized         |
             |        Generalized Wannier Functions code         |
             |            http://www.wannier.org                 |
             |                                                   |
             |                                                   |
             |  Wannier90 Developer Group:                       |
             |    Giovanni Pizzi    (EPFL)                       |
             |    Valerio Vitale    (Cambridge)                  |
             |    David Vanderbilt  (Rutgers University)         |
             |    Nicola Marzari    (EPFL)                       |
             |    Ivo Souza         (Universidad del Pais Vasco) |
             |    Arash A. Mostofi  (Imperial College London)    |
             |    Jonathan R. Yates (University of Oxford)       |
             |                                                   |
             |  For the full list of Wannier90 3.x authors,      |
             |  please check the code documentation and the      |
             |  README on the GitHub page of the code            |
             |                                                   |
             |                                                   |
             |  Please cite                                      |
             |                                                   |
             |  [ref] "An updated version of Wannier90:          |
             |        A Tool for Obtaining Maximally Localised   |
             |        Wannier Functions", A. A. Mostofi,         |
             |        J. R. Yates, G. Pizzi, Y. S. Lee,          |
             |        I. Souza, D. Vanderbilt and N. Marzari,    |
             |        Comput. Phys. Commun. 185, 2309 (2014)     |
             |        http://dx.doi.org/10.1016/j.cpc.2014.05.003|
             |                                                   |
             |  in any publications arising from the use of      |
             |  this code. For the method please cite            |
             |                                                   |
             |  [ref] "Maximally Localized Generalised Wannier   |
             |         Functions for Composite Energy Bands"     |
             |         N. Marzari and D. Vanderbilt              |
             |         Phys. Rev. B 56 12847 (1997)              |
             |                                                   |
             |  [ref] "Maximally Localized Wannier Functions     |
             |         for Entangled Energy Bands"               |
             |         I. Souza, N. Marzari and D. Vanderbilt    |
             |         Phys. Rev. B 65 035109 (2001)             |
             |                                                   |
             |                                                   |
             | Copyright (c) 1996-2019                           |
             |        The Wannier90 Developer Group and          |
             |        individual contributors                    |
             |                                                   |
             |      Release: 3.0.0       27th February 2019      |
             |                                                   |
             | This program is free software; you can            |
             | redistribute it and/or modify it under the terms  |
             | of the GNU General Public License as published by |
             | the Free Software Foundation; either version 2 of |
             | the License, or (at your option) any later version|
             |                                                   |
             | This program is distributed in the hope that it   |
             | will be useful, but WITHOUT ANY WARRANTY; without |
             | even the implied warranty of MERCHANTABILITY or   |
             | FITNESS FOR A PARTICULAR PURPOSE. See the GNU     |
             | General Public License for more details.          |
             |                                                   |
             | You should have received a copy of the GNU General|
             | Public License along with this program; if not,   |
             | write to the Free Software Foundation, Inc.,      |
             | 675 Mass Ave, Cambridge, MA 02139, USA.           |
             |                                                   |
             +---------------------------------------------------+
             |    Execution started on 11Dec2019 at 14:34:13     |
             +---------------------------------------------------+
 
 ******************************************************************************
 * -> Using CODATA 2006 constant values                                       *
 *    (http://physics.nist.gov/cuu/Constants/index.html)                      *
 * -> Using Bohr value from CODATA                                            *
 ******************************************************************************
 

 Running in serial (with serial executable)

                                    ------
                                    SYSTEM
                                    ------

                              Lattice Vectors (Ang)
                    a_1     5.042270   0.000000   0.000000
                    a_2     4.201892   2.787220   0.000000
                    a_3     4.201892   1.266918   2.482643

                   Unit Cell Volume:      34.89086  (Ang^3)

                        Reciprocal-Space Vectors (Ang^-1)
                    b_1     1.246102  -1.878570  -1.150384
                    b_2     0.000000   2.254284  -1.150384
                    b_3     0.000000   0.000000   2.530845
  
 *----------------------------------------------------------------------------*
 |   Site       Fractional Coordinate          Cartesian Coordinate (Ang)     |
 +----------------------------------------------------------------------------+
 | Ni   1   0.00000   0.00000   0.00000   |    0.00000   0.00000   0.00000    |
 | Ni   1   0.50000   0.50000   0.50000   |    6.72303   2.02707   1.24132    |
 | O    1   0.25000   0.25000   0.25000   |    3.36151   1.01353   0.62066    |
 | O    2   0.75000   0.75000   0.75000   |   10.08454   3.04060   1.86198    |
 *----------------------------------------------------------------------------*
                                ------------
                                K-POINT GRID
                                ------------
  
             Grid size = 10 x 10 x 10      Total points = 1000
  
  
 *---------------------------------- MAIN ------------------------------------*
 |  Number of Wannier Functions               :                16             |
 |  Number of Objective Wannier Functions     :                16             |
 |  Number of input Bloch states              :                30             |
 |  Output verbosity (1=low, 5=high)          :                 1             |
 |  Timing Level (1=low, 5=high)              :                 1             |
 |  Optimisation (0=memory, 3=speed)          :                 3             |
 |  Length Unit                               :               Ang             |
 |  Post-processing setup (write *.nnkp)      :                 F             |
 |  Using Gamma-only branch of algorithms     :                 F             |
 *----------------------------------------------------------------------------*
 *------------------------------- WANNIERISE ---------------------------------*
 |  Total number of iterations                :               100             |
 |  Number of CG steps before reset           :                 5             |
 |  Trial step length for line search         :             2.000             |
 |  Convergence tolerence                     :         0.100E-09             |
 |  Convergence window                        :                -1             |
 |  Iterations between writing output         :                 1             |
 |  Iterations between backing up to disk     :               100             |
 |  Write r^2_nm to file                      :                 F             |
 |  Write xyz WF centres to file              :                 F             |
 |  Write on-site energies <0n|H|0n> to file  :                 F             |
 |  Use guiding centre to control phases      :                 F             |
 |  Use phases for initial projections        :                 F             |
 *----------------------------------------------------------------------------*
 *------------------------------- DISENTANGLE --------------------------------*
 |  Using band disentanglement                :                 T             |
 |  Total number of iterations                :               200             |
 |  Mixing ratio                              :             0.500             |
 |  Convergence tolerence                     :         1.000E-10             |
 |  Convergence window                        :                 3             |
 *----------------------------------------------------------------------------*
 *-------------------------------- PLOTTING ----------------------------------*
 |  Plotting Hamiltonian in WF basis          :                 T             |
 *----------------------------------------------------------------------------*
 Time to read parameters        0.091 (sec)

 *---------------------------------- K-MESH ----------------------------------*
 +----------------------------------------------------------------------------+
 |                    Distance to Nearest-Neighbour Shells                    |
 |                    ------------------------------------                    |
 |          Shell             Distance (Ang^-1)          Multiplicity         |
 |          -----             -----------------          ------------         |
 |             1                   0.132169                      2            |
 |             2                   0.253085                      6            |
 |             3                   0.264338                      8            |
 |             4                   0.305231                      6            |
 |             5                   0.332618                      6            |
 |             6                   0.396507                      8            |
 |             7                   0.431662                     12            |
 |             8                   0.451443                     12            |
 |             9                   0.500384                      6            |
 |            10                   0.506169                     24            |
 |            11                   0.528676                      8            |
 |            12                   0.544947                     12            |
 |            13                   0.586132                     18            |
 |            14                   0.610463                      6            |
 |            15                   0.624607                      6            |
 |            16                   0.660845                     14            |
 |            17                   0.665237                     24            |
 |            18                   0.682518                     24            |
 |            19                   0.695198                     18            |
 |            20                   0.727931                     12            |
 |            21                   0.747661                     24            |
 |            22                   0.759254                     18            |
 |            23                   0.789335                     18            |
 |            24                   0.793015                     32            |
 |            25                   0.818311                     12            |
 |            26                   0.846295                     12            |
 |            27                   0.863325                     12            |
 |            28                   0.873383                     30            |
 |            29                   0.899656                     18            |
 |            30                   0.902887                     48            |
 |            31                   0.915694                     30            |
 |            32                   0.925184                     14            |
 |            33                   0.950025                     24            |
 |            34                   0.965227                     24            |
 |            35                   0.974234                      6            |
 |            36                   0.997855                     30            |
 +----------------------------------------------------------------------------+
 | The b-vectors are chosen automatically                                     |
 | The following shells are used:   1,  2                                     |
 +----------------------------------------------------------------------------+
 |                        Shell   # Nearest-Neighbours                        |
 |                        -----   --------------------                        |
 |                          1               2                                 |
 |                          2               6                                 |
 +----------------------------------------------------------------------------+
 | Completeness relation is fully satisfied [Eq. (B1), PRB 56, 12847 (1997)]  |
 +----------------------------------------------------------------------------+
 |                  b_k Vectors (Ang^-1) and Weights (Ang^2)                  |
 |                  ----------------------------------------                  |
 |            No.         b_k(x)      b_k(y)      b_k(z)        w_b           |
 |            ---        --------------------------------     --------        |
 |             1         0.124610    0.037571    0.023008    26.833742        |
 |             2        -0.124610   -0.037571   -0.023008    26.833742        |
 |             3         0.124610   -0.187857   -0.115038     5.366751        |
 |             4         0.000000    0.225428   -0.115038     5.366751        |
 |             5         0.000000    0.000000    0.253085     5.366751        |
 |             6         0.000000    0.000000   -0.253085     5.366751        |
 |             7         0.000000   -0.225428    0.115038     5.366751        |
 |             8        -0.124610    0.187857    0.115038     5.366751        |
 +----------------------------------------------------------------------------+
 |                           b_k Directions (Ang^-1)                          |
 |                           -----------------------                          |
 |            No.           x           y           z                         |
 |            ---        --------------------------------                     |
 |             1         0.124610    0.037571    0.023008                     |
 |             2         0.124610   -0.187857   -0.115038                     |
 |             3         0.000000    0.225428   -0.115038                     |
 |             4         0.000000    0.000000    0.253085                     |
 +----------------------------------------------------------------------------+
  
 Time to get kmesh              7.388 (sec)
 *============================================================================*
 |                              MEMORY ESTIMATE                               |
 |         Maximum RAM allocated during each phase of the calculation         |
 *============================================================================*
 |                        Disentanglement          160.79 Mb                  |
 |                            Wannierise:           90.99 Mb                  |
 |                          plot_wannier:           90.99 Mb                  |
 *----------------------------------------------------------------------------*
  
 Starting a new Wannier90 calculation ...


 Reading overlaps from wanup.mmn    :  Created on 11Dec2019 at 14:32:15

 Reading projections from wanup.amn :  Created on 11Dec2019 at 14:31:34

 Time to read overlaps          9.972 (sec)

 *------------------------------- DISENTANGLE --------------------------------*
 +----------------------------------------------------------------------------+
 |                              Energy  Windows                               |
 |                              ---------------                               |
 |                   Outer:   -2.86756  to   20.09100  (eV)                   |
 |                   Inner:    2.13244  to   15.09100  (eV)                   |
 +----------------------------------------------------------------------------+
   Number of target bands to extract:   16

                   Unitarised projection of Wannier functions                  
                   ------------------------------------------                  
   A_mn = <psi_m|g_n> --> S = A.A^+ --> U = S^-1/2.A
   In dis_project... done
   Using an inner window (linner = T)
   In dis_proj_froz... done

                   Extraction of optimally-connected subspace                  
                   ------------------------------------------                  
 +---------------------------------------------------------------------+<-- DIS
 |  Iter     Omega_I(i-1)      Omega_I(i)      Delta (frac.)    Time   |<-- DIS
 +---------------------------------------------------------------------+<-- DIS
       1      10.95309236      11.08763243      -1.213E-02      0.00    <-- DIS
       2      10.95220138      10.92383378       2.597E-03      0.13    <-- DIS
       3      10.92350238      10.89634253       2.493E-03      0.26    <-- DIS
       4      10.89860029      10.87207984       2.439E-03      0.39    <-- DIS
       5      10.87926853      10.85967339       1.804E-03      0.52    <-- DIS
       6      10.86546111      10.85196500       1.244E-03      0.65    <-- DIS
       7      10.85378917      10.84543602       7.702E-04      0.78    <-- DIS
       8      10.84508899      10.83969986       4.972E-04      0.91    <-- DIS
       9      10.83789617      10.83483756       2.823E-04      1.04    <-- DIS
      10      10.83239653      10.83089264       1.389E-04      1.17    <-- DIS
      11      10.82828630      10.82778786       4.603E-05      1.30    <-- DIS
      12      10.82526510      10.82538709      -1.127E-05      1.43    <-- DIS
      13      10.82305435      10.82354782      -4.559E-05      1.56    <-- DIS
      14      10.82143828      10.82214475      -6.528E-05      1.69    <-- DIS
      15      10.82025863      10.82107580      -7.552E-05      1.82    <-- DIS
      16      10.81940020      10.82026083      -7.954E-05      1.96    <-- DIS
      17      10.81877841      10.81963813      -7.946E-05      2.09    <-- DIS
      18      10.81833076      10.81916068      -7.671E-05      2.21    <-- DIS
      19      10.81801082      10.81879293      -7.229E-05      2.35    <-- DIS
      20      10.81778409      10.81850806      -6.692E-05      2.47    <-- DIS
      21      10.81762500      10.81828590      -6.109E-05      2.61    <-- DIS
      22      10.81751465      10.81811127      -5.515E-05      2.74    <-- DIS
      23      10.81743909      10.81797277      -4.933E-05      2.87    <-- DIS
      24      10.81738814      10.81786183      -4.379E-05      3.00    <-- DIS
      25      10.81735435      10.81777197      -3.861E-05      3.13    <-- DIS
      26      10.81733234      10.81769833      -3.383E-05      3.26    <-- DIS
      27      10.81731824      10.81763722      -2.949E-05      3.39    <-- DIS
      28      10.81730927      10.81758584      -2.557E-05      3.52    <-- DIS
      29      10.81730350      10.81754206      -2.205E-05      3.65    <-- DIS
      30      10.81729957      10.81750428      -1.892E-05      3.78    <-- DIS
      31      10.81729654      10.81747125      -1.615E-05      3.91    <-- DIS
      32      10.81729381      10.81744202      -1.370E-05      4.04    <-- DIS
      33      10.81729096      10.81741588      -1.155E-05      4.17    <-- DIS
      34      10.81728777      10.81739225      -9.658E-06      4.30    <-- DIS
      35      10.81728410      10.81737069      -8.005E-06      4.43    <-- DIS
      36      10.81727989      10.81735087      -6.562E-06      4.56    <-- DIS
      37      10.81727513      10.81733253      -5.306E-06      4.69    <-- DIS
      38      10.81726986      10.81731544      -4.214E-06      4.82    <-- DIS
      39      10.81726410      10.81729944      -3.267E-06      4.95    <-- DIS
      40      10.81725793      10.81728441      -2.447E-06      5.08    <-- DIS
      41      10.81725140      10.81727022      -1.740E-06      5.21    <-- DIS
      42      10.81724458      10.81725680      -1.130E-06      5.34    <-- DIS
      43      10.81723752      10.81724407      -6.060E-07      5.47    <-- DIS
      44      10.81723028      10.81723197      -1.568E-07      5.60    <-- DIS
      45      10.81722291      10.81722046       2.270E-07      5.73    <-- DIS
      46      10.81721547      10.81720949       5.537E-07      5.86    <-- DIS
      47      10.81720800      10.81719902       8.306E-07      5.99    <-- DIS
      48      10.81720053      10.81718902       1.064E-06      6.12    <-- DIS
      49      10.81719310      10.81717947       1.260E-06      6.25    <-- DIS
      50      10.81718573      10.81717034       1.423E-06      6.38    <-- DIS
      51      10.81717845      10.81716161       1.558E-06      6.51    <-- DIS
      52      10.81717129      10.81715325       1.667E-06      6.64    <-- DIS
      53      10.81716425      10.81714526       1.755E-06      6.77    <-- DIS
      54      10.81715736      10.81713762       1.825E-06      6.90    <-- DIS
      55      10.81715061      10.81713030       1.878E-06      7.03    <-- DIS
      56      10.81714404      10.81712329       1.918E-06      7.16    <-- DIS
      57      10.81713763      10.81711659       1.945E-06      7.29    <-- DIS
      58      10.81713140      10.81711017       1.962E-06      7.42    <-- DIS
      59      10.81712534      10.81710403       1.970E-06      7.55    <-- DIS
      60      10.81711947      10.81709815       1.971E-06      7.68    <-- DIS
      61      10.81711378      10.81709253       1.964E-06      7.81    <-- DIS
      62      10.81710827      10.81708715       1.953E-06      7.94    <-- DIS
      63      10.81710294      10.81708200       1.936E-06      8.07    <-- DIS
      64      10.81709780      10.81707707       1.916E-06      8.20    <-- DIS
      65      10.81709283      10.81707236       1.892E-06      8.34    <-- DIS
      66      10.81708803      10.81706786       1.865E-06      8.47    <-- DIS
      67      10.81708341      10.81706355       1.836E-06      8.60    <-- DIS
      68      10.81707895      10.81705943       1.805E-06      8.73    <-- DIS
      69      10.81707466      10.81705549       1.773E-06      8.86    <-- DIS
      70      10.81707053      10.81705172       1.739E-06      8.99    <-- DIS
      71      10.81706656      10.81704812       1.705E-06      9.12    <-- DIS
      72      10.81706273      10.81704468       1.669E-06      9.25    <-- DIS
      73      10.81705906      10.81704139       1.634E-06      9.38    <-- DIS
      74      10.81705553      10.81703825       1.598E-06      9.50    <-- DIS
      75      10.81705213      10.81703524       1.562E-06      9.63    <-- DIS
      76      10.81704887      10.81703237       1.525E-06      9.75    <-- DIS
      77      10.81704575      10.81702963       1.489E-06      9.87    <-- DIS
      78      10.81704274      10.81702702       1.454E-06     10.00    <-- DIS
      79      10.81703986      10.81702452       1.418E-06     10.12    <-- DIS
      80      10.81703709      10.81702213       1.383E-06     10.25    <-- DIS
      81      10.81703444      10.81701985       1.348E-06     10.37    <-- DIS
      82      10.81703189      10.81701768       1.314E-06     10.49    <-- DIS
      83      10.81702945      10.81701560       1.280E-06     10.62    <-- DIS
      84      10.81702711      10.81701362       1.247E-06     10.74    <-- DIS
      85      10.81702486      10.81701172       1.215E-06     10.87    <-- DIS
      86      10.81702271      10.81700992       1.183E-06     10.99    <-- DIS
      87      10.81702065      10.81700819       1.151E-06     11.11    <-- DIS
      88      10.81701867      10.81700655       1.121E-06     11.24    <-- DIS
      89      10.81701677      10.81700498       1.091E-06     11.36    <-- DIS
      90      10.81701496      10.81700348       1.061E-06     11.49    <-- DIS
      91      10.81701322      10.81700205       1.032E-06     11.61    <-- DIS
      92      10.81701155      10.81700069       1.004E-06     11.73    <-- DIS
      93      10.81700995      10.81699939       9.769E-07     11.86    <-- DIS
      94      10.81700842      10.81699814       9.501E-07     11.98    <-- DIS
      95      10.81700695      10.81699696       9.240E-07     12.11    <-- DIS
      96      10.81700555      10.81699583       8.985E-07     12.23    <-- DIS
      97      10.81700420      10.81699475       8.737E-07     12.35    <-- DIS
      98      10.81700291      10.81699372       8.495E-07     12.48    <-- DIS
      99      10.81700168      10.81699274       8.259E-07     12.60    <-- DIS
     100      10.81700049      10.81699181       8.029E-07     12.73    <-- DIS
     101      10.81699936      10.81699091       7.805E-07     12.85    <-- DIS
     102      10.81699827      10.81699006       7.587E-07     12.97    <-- DIS
     103      10.81699723      10.81698925       7.375E-07     13.10    <-- DIS
     104      10.81699623      10.81698847       7.168E-07     13.22    <-- DIS
     105      10.81699527      10.81698773       6.967E-07     13.35    <-- DIS
     106      10.81699435      10.81698703       6.771E-07     13.47    <-- DIS
     107      10.81699347      10.81698635       6.581E-07     13.59    <-- DIS
     108      10.81699263      10.81698571       6.395E-07     13.72    <-- DIS
     109      10.81699182      10.81698509       6.215E-07     13.84    <-- DIS
     110      10.81699104      10.81698451       6.040E-07     13.97    <-- DIS
     111      10.81699030      10.81698395       5.870E-07     14.09    <-- DIS
     112      10.81698958      10.81698341       5.704E-07     14.21    <-- DIS
     113      10.81698889      10.81698290       5.543E-07     14.34    <-- DIS
     114      10.81698824      10.81698241       5.387E-07     14.46    <-- DIS
     115      10.81698760      10.81698194       5.234E-07     14.59    <-- DIS
     116      10.81698700      10.81698150       5.086E-07     14.71    <-- DIS
     117      10.81698641      10.81698107       4.943E-07     14.83    <-- DIS
     118      10.81698585      10.81698066       4.803E-07     14.96    <-- DIS
     119      10.81698532      10.81698027       4.667E-07     15.09    <-- DIS
     120      10.81698480      10.81697989       4.535E-07     15.21    <-- DIS
     121      10.81698430      10.81697953       4.407E-07     15.33    <-- DIS
     122      10.81698382      10.81697919       4.283E-07     15.46    <-- DIS
     123      10.81698336      10.81697886       4.162E-07     15.58    <-- DIS
     124      10.81698291      10.81697854       4.045E-07     15.71    <-- DIS
     125      10.81698249      10.81697823       3.931E-07     15.83    <-- DIS
     126      10.81698207      10.81697794       3.820E-07     15.95    <-- DIS
     127      10.81698168      10.81697766       3.712E-07     16.08    <-- DIS
     128      10.81698129      10.81697739       3.608E-07     16.20    <-- DIS
     129      10.81698092      10.81697713       3.506E-07     16.32    <-- DIS
     130      10.81698056      10.81697688       3.408E-07     16.45    <-- DIS
     131      10.81698022      10.81697663       3.312E-07     16.57    <-- DIS
     132      10.81697988      10.81697640       3.220E-07     16.69    <-- DIS
     133      10.81697956      10.81697617       3.130E-07     16.82    <-- DIS
     134      10.81697924      10.81697595       3.042E-07     16.94    <-- DIS
     135      10.81697894      10.81697574       2.957E-07     17.07    <-- DIS
     136      10.81697864      10.81697553       2.875E-07     17.19    <-- DIS
     137      10.81697835      10.81697533       2.795E-07     17.32    <-- DIS
     138      10.81697808      10.81697514       2.718E-07     17.44    <-- DIS
     139      10.81697780      10.81697494       2.643E-07     17.57    <-- DIS
     140      10.81697754      10.81697476       2.570E-07     17.69    <-- DIS
     141      10.81697728      10.81697458       2.499E-07     17.81    <-- DIS
     142      10.81697703      10.81697440       2.431E-07     17.93    <-- DIS
     143      10.81697678      10.81697422       2.364E-07     18.06    <-- DIS
     144      10.81697654      10.81697405       2.300E-07     18.18    <-- DIS
     145      10.81697630      10.81697388       2.238E-07     18.30    <-- DIS
     146      10.81697607      10.81697372       2.177E-07     18.43    <-- DIS
     147      10.81697584      10.81697355       2.118E-07     18.55    <-- DIS
     148      10.81697562      10.81697339       2.062E-07     18.67    <-- DIS
     149      10.81697540      10.81697323       2.007E-07     18.80    <-- DIS
     150      10.81697518      10.81697307       1.953E-07     18.92    <-- DIS
     151      10.81697496      10.81697291       1.902E-07     19.04    <-- DIS
     152      10.81697475      10.81697275       1.852E-07     19.17    <-- DIS
     153      10.81697454      10.81697259       1.804E-07     19.29    <-- DIS
     154      10.81697433      10.81697243       1.757E-07     19.41    <-- DIS
     155      10.81697412      10.81697227       1.712E-07     19.53    <-- DIS
     156      10.81697391      10.81697211       1.668E-07     19.66    <-- DIS
     157      10.81697371      10.81697195       1.626E-07     19.78    <-- DIS
     158      10.81697350      10.81697179       1.586E-07     19.90    <-- DIS
     159      10.81697329      10.81697162       1.546E-07     20.03    <-- DIS
     160      10.81697309      10.81697146       1.508E-07     20.15    <-- DIS
     161      10.81697288      10.81697129       1.472E-07     20.27    <-- DIS
     162      10.81697267      10.81697112       1.436E-07     20.40    <-- DIS
     163      10.81697246      10.81697095       1.402E-07     20.52    <-- DIS
     164      10.81697225      10.81697077       1.370E-07     20.64    <-- DIS
     165      10.81697204      10.81697059       1.338E-07     20.76    <-- DIS
     166      10.81697183      10.81697041       1.308E-07     20.89    <-- DIS
     167      10.81697161      10.81697023       1.278E-07     21.01    <-- DIS
     168      10.81697139      10.81697004       1.250E-07     21.13    <-- DIS
     169      10.81697117      10.81696984       1.224E-07     21.26    <-- DIS
     170      10.81697094      10.81696965       1.198E-07     21.38    <-- DIS
     171      10.81697071      10.81696944       1.173E-07     21.50    <-- DIS
     172      10.81697048      10.81696924       1.150E-07     21.63    <-- DIS
     173      10.81697024      10.81696902       1.127E-07     21.75    <-- DIS
     174      10.81697000      10.81696881       1.106E-07     21.87    <-- DIS
     175      10.81696975      10.81696858       1.085E-07     22.00    <-- DIS
     176      10.81696950      10.81696835       1.066E-07     22.12    <-- DIS
     177      10.81696925      10.81696811       1.047E-07     22.24    <-- DIS
     178      10.81696898      10.81696787       1.030E-07     22.36    <-- DIS
     179      10.81696871      10.81696762       1.013E-07     22.49    <-- DIS
     180      10.81696844      10.81696736       9.978E-08     22.61    <-- DIS
     181      10.81696815      10.81696709       9.832E-08     22.73    <-- DIS
     182      10.81696786      10.81696681       9.696E-08     22.86    <-- DIS
     183      10.81696757      10.81696653       9.569E-08     22.98    <-- DIS
     184      10.81696726      10.81696624       9.451E-08     23.10    <-- DIS
     185      10.81696695      10.81696593       9.343E-08     23.23    <-- DIS
     186      10.81696662      10.81696562       9.244E-08     23.35    <-- DIS
     187      10.81696629      10.81696530       9.153E-08     23.47    <-- DIS
     188      10.81696595      10.81696497       9.072E-08     23.60    <-- DIS
     189      10.81696559      10.81696462       9.000E-08     23.72    <-- DIS
     190      10.81696523      10.81696426       8.937E-08     23.84    <-- DIS
     191      10.81696486      10.81696390       8.883E-08     23.97    <-- DIS
     192      10.81696447      10.81696352       8.838E-08     24.09    <-- DIS
     193      10.81696407      10.81696312       8.802E-08     24.21    <-- DIS
     194      10.81696366      10.81696271       8.775E-08     24.33    <-- DIS
     195      10.81696324      10.81696229       8.757E-08     24.46    <-- DIS
     196      10.81696280      10.81696186       8.748E-08     24.58    <-- DIS
     197      10.81696235      10.81696140       8.748E-08     24.70    <-- DIS
     198      10.81696188      10.81696094       8.758E-08     24.83    <-- DIS
     199      10.81696140      10.81696045       8.776E-08     24.95    <-- DIS
     200      10.81696090      10.81695995       8.805E-08     25.07    <-- DIS

     <<< Warning: Maximum number of disentanglement iterations reached >>>
          <<< Disentanglement convergence criteria not satisfied >>>

        Final Omega_I    10.81695995 (Ang^2)

 +----------------------------------------------------------------------------+

 Time to disentangle bands     26.036 (sec)

 Writing checkpoint file wanup.chk... done


 *------------------------------- WANNIERISE ---------------------------------*
 +--------------------------------------------------------------------+<-- CONV
 | Iter  Delta Spread     RMS Gradient      Spread (Ang^2)      Time  |<-- CONV
 +--------------------------------------------------------------------+<-- CONV

 ------------------------------------------------------------------------------
 Initial State
  WF centre and spread    1  (  0.000089,  0.000051,  0.000013 )     0.41914920
  WF centre and spread    2  (  0.000029,  0.000017,  0.000004 )     0.39630050
  WF centre and spread    3  (  0.000010,  0.000004,  0.000006 )     0.38079750
  WF centre and spread    4  (  0.000014,  0.000004,  0.000006 )     0.38311587
  WF centre and spread    5  (  0.000001, -0.000000,  0.000000 )     0.40177592
  WF centre and spread    6  (  6.726861,  2.029214,  1.241078 )     1.29973874
  WF centre and spread    7  (  6.724539,  2.027886,  1.240962 )     1.03748974
  WF centre and spread    8  (  6.723335,  2.027316,  1.241432 )     0.63389784
  WF centre and spread    9  (  6.723282,  2.027301,  1.241458 )     0.66426654
  WF centre and spread   10  (  6.723105,  2.027172,  1.241354 )     0.85241619
  WF centre and spread   11  (  3.364827,  1.015170,  0.622986 )     1.37317983
  WF centre and spread   12  (  3.354472,  1.013141,  0.620373 )     1.01573709
  WF centre and spread   13  (  3.364153,  1.013910,  0.619912 )     1.13383534
  WF centre and spread   14  ( 10.085462,  3.041368,  1.859859 )     1.37522126
  WF centre and spread   15  ( 10.091657,  3.041032,  1.862231 )     1.01652678
  WF centre and spread   16  ( 10.082115,  3.040416,  1.862953 )     1.13524642
  Sum of centres and spreads ( 73.963949, 22.304001, 13.654629 )    13.51869478

      0     0.135E+02     0.0000000000       13.5186604095      25.65  <-- CONV
        O_D=      0.0240767 O_OD=      2.6776238 O_TOT=     13.5186604 <-- SPRD
 ------------------------------------------------------------------------------
 Cycle:      1
  WF centre and spread    1  (  0.000028,  0.000016,  0.000005 )     0.40869239
  WF centre and spread    2  (  0.000009,  0.000006,  0.000002 )     0.39211772
  WF centre and spread    3  (  0.000004,  0.000001,  0.000002 )     0.37792738
  WF centre and spread    4  (  0.000005,  0.000001,  0.000001 )     0.38079382
  WF centre and spread    5  ( -0.000000, -0.000001,  0.000001 )     0.39859645
  WF centre and spread    6  (  6.718349,  2.024887,  1.240695 )     1.45721499
  WF centre and spread    7  (  6.723377,  2.027324,  1.241101 )     1.07042317
  WF centre and spread    8  (  6.723189,  2.027225,  1.241348 )     0.61810763
  WF centre and spread    9  (  6.723172,  2.027225,  1.241367 )     0.64653437
  WF centre and spread   10  (  6.723116,  2.027213,  1.241338 )     0.85031651
  WF centre and spread   11  (  3.363394,  1.014291,  0.622620 )     1.30438012
  WF centre and spread   12  (  3.354427,  1.013100,  0.620399 )     0.99931499
  WF centre and spread   13  (  3.364156,  1.014134,  0.619742 )     1.07828417
  WF centre and spread   14  ( 10.082845,  3.040000,  1.859881 )     1.30867850
  WF centre and spread   15  ( 10.091699,  3.041043,  1.862232 )     0.99948278
  WF centre and spread   16  ( 10.082001,  3.040161,  1.862955 )     1.07883794
  Sum of centres and spreads ( 73.949773, 22.296625, 13.653688 )    13.36970292

      1    -0.149E+00     0.2949709583       13.3696685652      26.11  <-- CONV
        O_D=      0.0983721 O_OD=      2.4543365 O_TOT=     13.3696686 <-- SPRD
 Delta: O_D=  0.7429543E-01 O_OD= -0.2232873E+00 O_TOT= -0.1489918E+00 <-- DLTA
 ------------------------------------------------------------------------------
 Cycle:      2
  WF centre and spread    1  (  0.000045,  0.000024,  0.000008 )     0.40812523
  WF centre and spread    2  (  0.000014,  0.000009,  0.000003 )     0.39186015
  WF centre and spread    3  (  0.000006,  0.000001,  0.000003 )     0.37775406
  WF centre and spread    4  (  0.000007,  0.000001,  0.000002 )     0.38063363
  WF centre and spread    5  ( -0.000000, -0.000001,  0.000001 )     0.39841207
  WF centre and spread    6  (  6.728295,  2.030223,  1.241174 )     1.39768424
  WF centre and spread    7  (  6.724595,  2.027907,  1.240854 )     1.07192738
  WF centre and spread    8  (  6.723269,  2.027319,  1.241365 )     0.61638922
  WF centre and spread    9  (  6.723232,  2.027308,  1.241394 )     0.64484012
  WF centre and spread   10  (  6.723121,  2.027226,  1.241358 )     0.84992793
  WF centre and spread   11  (  3.364430,  1.014786,  0.622576 )     1.29258985
  WF centre and spread   12  (  3.354438,  1.013102,  0.620399 )     0.99788021
  WF centre and spread   13  (  3.364176,  1.014184,  0.619775 )     1.07474824
  WF centre and spread   14  ( 10.083938,  3.040509,  1.859899 )     1.29611383
  WF centre and spread   15  ( 10.091774,  3.041043,  1.862228 )     0.99826372
  WF centre and spread   16  ( 10.082012,  3.040186,  1.862955 )     1.07554398
  Sum of centres and spreads ( 73.963351, 22.303829, 13.653992 )    13.27269387

      2    -0.970E-01     0.6629961826       13.2726594943      26.56  <-- CONV
        O_D=      0.0260196 O_OD=      2.4296799 O_TOT=     13.2726595 <-- SPRD
 Delta: O_D= -0.7235251E-01 O_OD= -0.2465656E-01 O_TOT= -0.9700907E-01 <-- DLTA
 ------------------------------------------------------------------------------
 Cycle:      3
  WF centre and spread    1  (  0.000034,  0.000016,  0.000006 )     0.40573847
  WF centre and spread    2  (  0.000010,  0.000006,  0.000002 )     0.39076836
  WF centre and spread    3  (  0.000005,  0.000001,  0.000002 )     0.37705348
  WF centre and spread    4  (  0.000005,  0.000000,  0.000001 )     0.37998698
  WF centre and spread    5  (  0.000000, -0.000001,  0.000000 )     0.39766945
  WF centre and spread    6  (  6.724487,  2.027997,  1.240903 )     1.52720795
  WF centre and spread    7  (  6.724571,  2.027788,  1.240947 )     1.08544797
  WF centre and spread    8  (  6.723233,  2.027288,  1.241345 )     0.61010543
  WF centre and spread    9  (  6.723202,  2.027283,  1.241371 )     0.63896668
  WF centre and spread   10  (  6.723124,  2.027226,  1.241347 )     0.85184312
  WF centre and spread   11  (  3.364473,  1.014761,  0.622363 )     1.26159616
  WF centre and spread   12  (  3.354287,  1.013107,  0.620410 )     0.99366481
  WF centre and spread   13  (  3.364183,  1.014230,  0.619837 )     1.06357440
  WF centre and spread   14  ( 10.083833,  3.040409,  1.860039 )     1.26556253
  WF centre and spread   15  ( 10.091931,  3.041030,  1.862221 )     0.99369338
  WF centre and spread   16  ( 10.081983,  3.040130,  1.862869 )     1.06403492
  Sum of centres and spreads ( 73.959359, 22.301270, 13.653664 )    13.30691407

      3     0.342E-01     0.2267457581       13.3068797088      27.01  <-- CONV
        O_D=      0.1187825 O_OD=      2.3711373 O_TOT=     13.3068797 <-- SPRD
 Delta: O_D=  0.9276291E-01 O_OD= -0.5854269E-01 O_TOT=  0.3422021E-01 <-- DLTA
 ------------------------------------------------------------------------------
 Cycle:      4
  WF centre and spread    1  (  0.000033,  0.000016,  0.000006 )     0.40578283
  WF centre and spread    2  (  0.000010,  0.000006,  0.000002 )     0.39079027
  WF centre and spread    3  (  0.000005,  0.000001,  0.000002 )     0.37704422
  WF centre and spread    4  (  0.000005,  0.000000,  0.000001 )     0.37997798
  WF centre and spread    5  (  0.000000, -0.000001,  0.000000 )     0.39768200
  WF centre and spread    6  (  6.725321,  2.028285,  1.241087 )     1.42762904
  WF centre and spread    7  (  6.724565,  2.027788,  1.240935 )     1.08975669
  WF centre and spread    8  (  6.723233,  2.027289,  1.241345 )     0.61007726
  WF centre and spread    9  (  6.723202,  2.027283,  1.241371 )     0.63889726
  WF centre and spread   10  (  6.723125,  2.027227,  1.241347 )     0.85265893
  WF centre and spread   11  (  3.364477,  1.014759,  0.622358 )     1.26262697
  WF centre and spread   12  (  3.354291,  1.013108,  0.620410 )     0.99371375
  WF centre and spread   13  (  3.364176,  1.014226,  0.619835 )     1.06359754
  WF centre and spread   14  ( 10.083823,  3.040410,  1.860039 )     1.26657185
  WF centre and spread   15  ( 10.091927,  3.041029,  1.862220 )     0.99373471
  WF centre and spread   16  ( 10.081990,  3.040134,  1.862871 )     1.06406815
  Sum of centres and spreads ( 73.960184, 22.301562, 13.653831 )    13.21460946

      4    -0.923E-01     2.0964436681       13.2145750898      27.47  <-- CONV
        O_D=      0.0233376 O_OD=      2.3742775 O_TOT=     13.2145751 <-- SPRD
 Delta: O_D= -0.9544490E-01 O_OD=  0.3140280E-02 O_TOT= -0.9230462E-01 <-- DLTA
 ------------------------------------------------------------------------------
 Cycle:      5
  WF centre and spread    1  (  0.000033,  0.000016,  0.000006 )     0.40569859
  WF centre and spread    2  (  0.000010,  0.000006,  0.000002 )     0.39075351
  WF centre and spread    3  (  0.000005,  0.000001,  0.000002 )     0.37702088
  WF centre and spread    4  (  0.000005,  0.000000,  0.000001 )     0.37995577
  WF centre and spread    5  (  0.000000, -0.000001,  0.000000 )     0.39766266
  WF centre and spread    6  (  6.725047,  2.028219,  1.240923 )     1.42395435
  WF centre and spread    7  (  6.724530,  2.027767,  1.240904 )     1.08983759
  WF centre and spread    8  (  6.723233,  2.027289,  1.241344 )     0.60973639
  WF centre and spread    9  (  6.723203,  2.027284,  1.241371 )     0.63859375
  WF centre and spread   10  (  6.723125,  2.027230,  1.241348 )     0.85278089
  WF centre and spread   11  (  3.364464,  1.014749,  0.622350 )     1.26112244
  WF centre and spread   12  (  3.354287,  1.013108,  0.620410 )     0.99360355
  WF centre and spread   13  (  3.364175,  1.014225,  0.619835 )     1.06329608
  WF centre and spread   14  ( 10.083815,  3.040406,  1.860038 )     1.26504575
  WF centre and spread   15  ( 10.091931,  3.041029,  1.862220 )     0.99362963
  WF centre and spread   16  ( 10.081990,  3.040135,  1.862871 )     1.06376067
  Sum of centres and spreads ( 73.959855, 22.301463, 13.653626 )    13.20645249

      5    -0.816E-02     0.3934525518       13.2064181250      27.92  <-- CONV
        O_D=      0.0182307 O_OD=      2.3712275 O_TOT=     13.2064181 <-- SPRD
 Delta: O_D= -0.5106945E-02 O_OD= -0.3050019E-02 O_TOT= -0.8156965E-02 <-- DLTA
 ------------------------------------------------------------------------------
 Cycle:      6
  WF centre and spread    1  (  0.000032,  0.000016,  0.000006 )     0.40496971
  WF centre and spread    2  (  0.000010,  0.000006,  0.000002 )     0.39043194
  WF centre and spread    3  (  0.000005,  0.000001,  0.000002 )     0.37682695
  WF centre and spread    4  (  0.000005,  0.000000,  0.000001 )     0.37977197
  WF centre and spread    5  ( -0.000000, -0.000001,  0.000001 )     0.39749115
  WF centre and spread    6  (  6.727704,  2.029838,  1.241065 )     1.45016845
  WF centre and spread    7  (  6.724602,  2.027796,  1.240826 )     1.08909571
  WF centre and spread    8  (  6.723233,  2.027298,  1.241341 )     0.60692690
  WF centre and spread    9  (  6.723204,  2.027294,  1.241370 )     0.63610745
  WF centre and spread   10  (  6.723129,  2.027238,  1.241353 )     0.85348200
  WF centre and spread   11  (  3.364381,  1.014698,  0.622304 )     1.24809910
  WF centre and spread   12  (  3.354255,  1.013110,  0.620412 )     0.99270706
  WF centre and spread   13  (  3.364175,  1.014229,  0.619842 )     1.06075951
  WF centre and spread   14  ( 10.083776,  3.040399,  1.860047 )     1.25189223
  WF centre and spread   15  ( 10.091974,  3.041026,  1.862218 )     0.99271916
  WF centre and spread   16  ( 10.081988,  3.040142,  1.862865 )     1.06119606
  Sum of centres and spreads ( 73.962471, 22.303089, 13.653655 )    13.19264536

      6    -0.138E-01     0.2793070453       13.1926109923      28.37  <-- CONV
        O_D=      0.0302533 O_OD=      2.3453977 O_TOT=     13.1926110 <-- SPRD
 Delta: O_D=  0.1202268E-01 O_OD= -0.2582981E-01 O_TOT= -0.1380713E-01 <-- DLTA
 ------------------------------------------------------------------------------
 Cycle:      7
  WF centre and spread    1  (  0.000031,  0.000015,  0.000006 )     0.40479674
  WF centre and spread    2  (  0.000009,  0.000006,  0.000002 )     0.39035392
  WF centre and spread    3  (  0.000005,  0.000000,  0.000002 )     0.37677787
  WF centre and spread    4  (  0.000005,  0.000000,  0.000001 )     0.37972588
  WF centre and spread    5  (  0.000000, -0.000001,  0.000001 )     0.39744673
  WF centre and spread    6  (  6.728482,  2.030262,  1.241231 )     1.45644709
  WF centre and spread    7  (  6.724634,  2.027813,  1.240835 )     1.08954160
  WF centre and spread    8  (  6.723231,  2.027299,  1.241340 )     0.60628615
  WF centre and spread    9  (  6.723202,  2.027294,  1.241368 )     0.63553188
  WF centre and spread   10  (  6.723129,  2.027238,  1.241353 )     0.85371884
  WF centre and spread   11  (  3.364349,  1.014682,  0.622296 )     1.24512223
  WF centre and spread   12  (  3.354246,  1.013111,  0.620413 )     0.99250041
  WF centre and spread   13  (  3.364174,  1.014229,  0.619844 )     1.06013534
  WF centre and spread   14  ( 10.083751,  3.040392,  1.860053 )     1.24893668
  WF centre and spread   15  ( 10.091985,  3.041025,  1.862217 )     0.99249861
  WF centre and spread   16  ( 10.081988,  3.040143,  1.862862 )     1.06056097
  Sum of centres and spreads ( 73.963222, 22.303508, 13.653826 )    13.19038096

      7    -0.226E-02     0.4359697200       13.1903465932      28.83  <-- CONV
        O_D=      0.0333910 O_OD=      2.3399957 O_TOT=     13.1903466 <-- SPRD
 Delta: O_D=  0.3137636E-02 O_OD= -0.5402035E-02 O_TOT= -0.2264399E-02 <-- DLTA
 ------------------------------------------------------------------------------
 Cycle:      8
  WF centre and spread    1  (  0.000030,  0.000015,  0.000006 )     0.40461148
  WF centre and spread    2  (  0.000009,  0.000006,  0.000002 )     0.39026795
  WF centre and spread    3  (  0.000004,  0.000000,  0.000002 )     0.37672249
  WF centre and spread    4  (  0.000005,  0.000000,  0.000001 )     0.37967441
  WF centre and spread    5  (  0.000000, -0.000001,  0.000000 )     0.39739360
  WF centre and spread    6  (  6.729382,  2.030603,  1.241551 )     1.46128165
  WF centre and spread    7  (  6.724678,  2.027837,  1.240884 )     1.09056572
  WF centre and spread    8  (  6.723227,  2.027296,  1.241338 )     0.60564740
  WF centre and spread    9  (  6.723198,  2.027292,  1.241366 )     0.63494713
  WF centre and spread   10  (  6.723128,  2.027234,  1.241352 )     0.85398832
  WF centre and spread   11  (  3.364296,  1.014657,  0.622293 )     1.24208184
  WF centre and spread   12  (  3.354234,  1.013111,  0.620414 )     0.99228078
  WF centre and spread   13  (  3.364174,  1.014228,  0.619845 )     1.05943275
  WF centre and spread   14  ( 10.083701,  3.040375,  1.860065 )     1.24600611
  WF centre and spread   15  ( 10.091998,  3.041025,  1.862217 )     0.99224964
  WF centre and spread   16  ( 10.081987,  3.040143,  1.862859 )     1.05983668
  Sum of centres and spreads ( 73.964051, 22.303821, 13.654195 )    13.18698796

      8    -0.339E-02     0.3265837722       13.1869535849      29.28  <-- CONV
        O_D=      0.0347987 O_OD=      2.3351949 O_TOT=     13.1869536 <-- SPRD
 Delta: O_D=  0.1407770E-02 O_OD= -0.4800778E-02 O_TOT= -0.3393008E-02 <-- DLTA
 ------------------------------------------------------------------------------
 Cycle:      9
  WF centre and spread    1  (  0.000027,  0.000013,  0.000006 )     0.40408998
  WF centre and spread    2  (  0.000008,  0.000005,  0.000002 )     0.39002333
  WF centre and spread    3  (  0.000004,  0.000000,  0.000001 )     0.37656318
  WF centre and spread    4  (  0.000004,  0.000000,  0.000001 )     0.37952687
  WF centre and spread    5  (  0.000001, -0.000001,  0.000000 )     0.39723877
  WF centre and spread    6  (  6.731552,  2.031025,  1.242393 )     1.47609460
  WF centre and spread    7  (  6.724678,  2.027839,  1.241016 )     1.09430995
  WF centre and spread    8  (  6.723211,  2.027284,  1.241331 )     0.60389119
  WF centre and spread    9  (  6.723183,  2.027280,  1.241357 )     0.63332997
  WF centre and spread   10  (  6.723127,  2.027226,  1.241347 )     0.85485004
  WF centre and spread   11  (  3.364116,  1.014568,  0.622283 )     1.23378321
  WF centre and spread   12  (  3.354195,  1.013112,  0.620418 )     0.99166756
  WF centre and spread   13  (  3.364170,  1.014221,  0.619847 )     1.05744634
  WF centre and spread   14  ( 10.083524,  3.040306,  1.860096 )     1.23808813
  WF centre and spread   15  ( 10.092034,  3.041023,  1.862215 )     0.99155300
  WF centre and spread   16  ( 10.081983,  3.040141,  1.862849 )     1.05776797
  Sum of centres and spreads ( 73.965818, 22.304044, 13.655163 )    13.18022409

      9    -0.676E-02     0.4538550736       13.1801897187      29.74  <-- CONV
        O_D=      0.0406589 O_OD=      2.3225709 O_TOT=     13.1801897 <-- SPRD
 Delta: O_D=  0.5860170E-02 O_OD= -0.1262404E-01 O_TOT= -0.6763866E-02 <-- DLTA
 ------------------------------------------------------------------------------
 Cycle:     10
  WF centre and spread    1  (  0.000026,  0.000013,  0.000005 )     0.40408241
  WF centre and spread    2  (  0.000008,  0.000005,  0.000002 )     0.39001969
  WF centre and spread    3  (  0.000004,  0.000000,  0.000002 )     0.37655880
  WF centre and spread    4  (  0.000004,  0.000000,  0.000001 )     0.37952278
  WF centre and spread    5  (  0.000000, -0.000001,  0.000000 )     0.39723619
  WF centre and spread    6  (  6.727595,  2.029553,  1.241307 )     1.46503101
  WF centre and spread    7  (  6.724480,  2.027728,  1.240943 )     1.09468395
  WF centre and spread    8  (  6.723209,  2.027279,  1.241330 )     0.60385142
  WF centre and spread    9  (  6.723183,  2.027277,  1.241357 )     0.63328951
  WF centre and spread   10  (  6.723128,  2.027232,  1.241347 )     0.85494103
  WF centre and spread   11  (  3.364091,  1.014548,  0.622273 )     1.23367369
  WF centre and spread   12  (  3.354191,  1.013112,  0.620418 )     0.99164428
  WF centre and spread   13  (  3.364169,  1.014218,  0.619847 )     1.05741113
  WF centre and spread   14  ( 10.083498,  3.040286,  1.860088 )     1.23795262
  WF centre and spread   15  ( 10.092031,  3.041023,  1.862215 )     0.99155239
  WF centre and spread   16  ( 10.081983,  3.040139,  1.862849 )     1.05771846
  Sum of centres and spreads ( 73.961601, 22.302412, 13.653984 )    13.16916936

     10    -0.111E-01     0.9390540144       13.1691349885      30.19  <-- CONV
        O_D=      0.0296125 O_OD=      2.3225626 O_TOT=     13.1691350 <-- SPRD
 Delta: O_D= -0.1104644E-01 O_OD= -0.8286874E-05 O_TOT= -0.1105473E-01 <-- DLTA
 ------------------------------------------------------------------------------
 Cycle:     11
  WF centre and spread    1  (  0.000026,  0.000012,  0.000005 )     0.40407051
  WF centre and spread    2  (  0.000008,  0.000005,  0.000002 )     0.39001394
  WF centre and spread    3  (  0.000004,  0.000000,  0.000001 )     0.37655199
  WF centre and spread    4  (  0.000004,  0.000000,  0.000001 )     0.37951641
  WF centre and spread    5  (  0.000000, -0.000001,  0.000000 )     0.39723207
  WF centre and spread    6  (  6.727398,  2.029344,  1.241140 )     1.45447298
  WF centre and spread    7  (  6.724348,  2.027656,  1.240898 )     1.09537183
  WF centre and spread    8  (  6.723207,  2.027276,  1.241330 )     0.60378978
  WF centre and spread    9  (  6.723183,  2.027275,  1.241357 )     0.63322666
  WF centre and spread   10  (  6.723128,  2.027236,  1.241347 )     0.85508043
  WF centre and spread   11  (  3.364072,  1.014533,  0.622267 )     1.23349330
  WF centre and spread   12  (  3.354187,  1.013112,  0.620418 )     0.99162042
  WF centre and spread   13  (  3.364167,  1.014215,  0.619846 )     1.05734934
  WF centre and spread   14  ( 10.083476,  3.040272,  1.860083 )     1.23776224
  WF centre and spread   15  ( 10.092030,  3.041022,  1.862215 )     0.99153967
  WF centre and spread   16  ( 10.081984,  3.040139,  1.862849 )     1.05764679
  Sum of centres and spreads ( 73.961222, 22.302097, 13.653760 )    13.15873834

     11    -0.104E-01     1.0753847452       13.1587039752      30.65  <-- CONV
        O_D=      0.0191908 O_OD=      2.3225532 O_TOT=     13.1587040 <-- SPRD
 Delta: O_D= -0.1042166E-01 O_OD= -0.9348759E-05 O_TOT= -0.1043101E-01 <-- DLTA
 ------------------------------------------------------------------------------
 Cycle:     12
  WF centre and spread    1  (  0.000025,  0.000012,  0.000005 )     0.40404356
  WF centre and spread    2  (  0.000008,  0.000005,  0.000002 )     0.39000088
  WF centre and spread    3  (  0.000004,  0.000000,  0.000001 )     0.37654350
  WF centre and spread    4  (  0.000004,  0.000000,  0.000001 )     0.37950855
  WF centre and spread    5  (  0.000000, -0.000001,  0.000000 )     0.39722350
  WF centre and spread    6  (  6.727997,  2.029481,  1.241319 )     1.45422613
  WF centre and spread    7  (  6.724323,  2.027647,  1.240908 )     1.09554202
  WF centre and spread    8  (  6.723205,  2.027274,  1.241329 )     0.60369720
  WF centre and spread    9  (  6.723181,  2.027273,  1.241356 )     0.63314174
  WF centre and spread   10  (  6.723128,  2.027235,  1.241347 )     0.85512920
  WF centre and spread   11  (  3.364054,  1.014526,  0.622267 )     1.23302675
  WF centre and spread   12  (  3.354184,  1.013112,  0.620418 )     0.99158716
  WF centre and spread   13  (  3.364167,  1.014214,  0.619846 )     1.05724480
  WF centre and spread   14  ( 10.083458,  3.040265,  1.860084 )     1.23732915
  WF centre and spread   15  ( 10.092031,  3.041022,  1.862215 )     0.99150151
  WF centre and spread   16  ( 10.081983,  3.040138,  1.862848 )     1.05753637
  Sum of centres and spreads ( 73.961754, 22.302204, 13.653947 )    13.15728203

     12    -0.146E-02     0.2551684577       13.1572476643      31.10  <-- CONV
        O_D=      0.0183315 O_OD=      2.3219562 O_TOT=     13.1572477 <-- SPRD
 Delta: O_D= -0.8593323E-03 O_OD= -0.5969786E-03 O_TOT= -0.1456311E-02 <-- DLTA
 ------------------------------------------------------------------------------
 Cycle:     13
  WF centre and spread    1  (  0.000025,  0.000012,  0.000005 )     0.40403808
  WF centre and spread    2  (  0.000007,  0.000005,  0.000002 )     0.38999825
  WF centre and spread    3  (  0.000004,  0.000000,  0.000001 )     0.37654177
  WF centre and spread    4  (  0.000004,  0.000000,  0.000001 )     0.37950694
  WF centre and spread    5  (  0.000000, -0.000001,  0.000000 )     0.39722183
  WF centre and spread    6  (  6.726856,  2.029074,  1.241046 )     1.45292456
  WF centre and spread    7  (  6.724287,  2.027627,  1.240898 )     1.09557836
  WF centre and spread    8  (  6.723204,  2.027273,  1.241329 )     0.60367763
  WF centre and spread    9  (  6.723181,  2.027272,  1.241356 )     0.63312379
  WF centre and spread   10  (  6.723128,  2.027236,  1.241347 )     0.85513986
  WF centre and spread   11  (  3.364047,  1.014521,  0.622266 )     1.23293183
  WF centre and spread   12  (  3.354183,  1.013112,  0.620418 )     0.99157848
  WF centre and spread   13  (  3.364167,  1.014214,  0.619846 )     1.05722488
  WF centre and spread   14  ( 10.083451,  3.040260,  1.860083 )     1.23723630
  WF centre and spread   15  ( 10.092031,  3.041022,  1.862215 )     0.99149606
  WF centre and spread   16  ( 10.081983,  3.040137,  1.862848 )     1.05751334
  Sum of centres and spreads ( 73.960559, 22.301766, 13.653661 )    13.15573197

     13    -0.155E-02     0.5552328152       13.1556976030      31.56  <-- CONV
        O_D=      0.0169018 O_OD=      2.3218358 O_TOT=     13.1556976 <-- SPRD
 Delta: O_D= -0.1429672E-02 O_OD= -0.1203896E-03 O_TOT= -0.1550061E-02 <-- DLTA
 ------------------------------------------------------------------------------
 Cycle:     14
  WF centre and spread    1  (  0.000021,  0.000011,  0.000005 )     0.40372272
  WF centre and spread    2  (  0.000006,  0.000004,  0.000001 )     0.38984690
  WF centre and spread    3  (  0.000003,  0.000000,  0.000001 )     0.37644871
  WF centre and spread    4  (  0.000004,  0.000000,  0.000001 )     0.37942043
  WF centre and spread    5  (  0.000000, -0.000001,  0.000000 )     0.39712655
  WF centre and spread    6  (  6.725755,  2.028320,  1.241513 )     1.46788575
  WF centre and spread    7  (  6.724070,  2.027558,  1.241031 )     1.09637754
  WF centre and spread    8  (  6.723184,  2.027255,  1.241323 )     0.60257679
  WF centre and spread    9  (  6.723164,  2.027255,  1.241347 )     0.63213296
  WF centre and spread   10  (  6.723125,  2.027225,  1.241342 )     0.85554767
  WF centre and spread   11  (  3.363870,  1.014449,  0.622271 )     1.22727367
  WF centre and spread   12  (  3.354146,  1.013113,  0.620421 )     0.99119949
  WF centre and spread   13  (  3.364165,  1.014205,  0.619848 )     1.05605826
  WF centre and spread   14  ( 10.083268,  3.040191,  1.860102 )     1.23192377
  WF centre and spread   15  ( 10.092047,  3.041022,  1.862214 )     0.99106535
  WF centre and spread   16  ( 10.081977,  3.040132,  1.862838 )     1.05629044
  Sum of centres and spreads ( 73.958807, 22.300738, 13.654257 )    13.15489700

     14    -0.835E-03     0.2458958527       13.1548626350      32.01  <-- CONV
        O_D=      0.0243711 O_OD=      2.3135316 O_TOT=     13.1548626 <-- SPRD
 Delta: O_D=  0.7469284E-02 O_OD= -0.8304252E-02 O_TOT= -0.8349680E-03 <-- DLTA
 ------------------------------------------------------------------------------
 Cycle:     15
  WF centre and spread    1  (  0.000021,  0.000011,  0.000005 )     0.40372099
  WF centre and spread    2  (  0.000006,  0.000004,  0.000001 )     0.38984617
  WF centre and spread    3  (  0.000003,  0.000000,  0.000001 )     0.37644819
  WF centre and spread    4  (  0.000004,  0.000000,  0.000001 )     0.37941993
  WF centre and spread    5  (  0.000000, -0.000001,  0.000000 )     0.39712623
  WF centre and spread    6  (  6.724587,  2.027978,  1.241247 )     1.46547319
  WF centre and spread    7  (  6.724054,  2.027548,  1.241019 )     1.09635901
  WF centre and spread    8  (  6.723185,  2.027255,  1.241323 )     0.60256763
  WF centre and spread    9  (  6.723165,  2.027255,  1.241347 )     0.63212497
  WF centre and spread   10  (  6.723125,  2.027226,  1.241342 )     0.85555420
  WF centre and spread   11  (  3.363871,  1.014448,  0.622270 )     1.22723303
  WF centre and spread   12  (  3.354146,  1.013113,  0.620421 )     0.99119483
  WF centre and spread   13  (  3.364165,  1.014205,  0.619848 )     1.05605296
  WF centre and spread   14  ( 10.083270,  3.040191,  1.860100 )     1.23186938
  WF centre and spread   15  ( 10.092047,  3.041022,  1.862214 )     0.99106459
  WF centre and spread   16  ( 10.081977,  3.040132,  1.862838 )     1.05628449
  Sum of centres and spreads ( 73.957626, 22.300386, 13.653977 )    13.15233978

     15    -0.256E-02     1.4377237400       13.1523054191      32.46  <-- CONV
        O_D=      0.0219262 O_OD=      2.3134192 O_TOT=     13.1523054 <-- SPRD
 Delta: O_D= -0.2444859E-02 O_OD= -0.1123569E-03 O_TOT= -0.2557216E-02 <-- DLTA
 ------------------------------------------------------------------------------
 Cycle:     16
  WF centre and spread    1  (  0.000022,  0.000011,  0.000005 )     0.40371307
  WF centre and spread    2  (  0.000006,  0.000004,  0.000001 )     0.38984286
  WF centre and spread    3  (  0.000003,  0.000000,  0.000001 )     0.37644564
  WF centre and spread    4  (  0.000004,  0.000000,  0.000001 )     0.37941747
  WF centre and spread    5  (  0.000000, -0.000001,  0.000000 )     0.39712487
  WF centre and spread    6  (  6.726461,  2.028703,  1.241555 )     1.45820289
  WF centre and spread    7  (  6.724045,  2.027538,  1.240993 )     1.09632463
  WF centre and spread    8  (  6.723186,  2.027256,  1.241323 )     0.60252324
  WF centre and spread    9  (  6.723166,  2.027256,  1.241348 )     0.63208603
  WF centre and spread   10  (  6.723126,  2.027228,  1.241343 )     0.85559334
  WF centre and spread   11  (  3.363882,  1.014451,  0.622266 )     1.22704232
  WF centre and spread   12  (  3.354146,  1.013113,  0.620421 )     0.99117797
  WF centre and spread   13  (  3.364165,  1.014205,  0.619848 )     1.05602615
  WF centre and spread   14  ( 10.083283,  3.040195,  1.860098 )     1.23162522
  WF centre and spread   15  ( 10.092047,  3.041022,  1.862214 )     0.99105705
  WF centre and spread   16  ( 10.081978,  3.040132,  1.862838 )     1.05625893
  Sum of centres and spreads ( 73.959519, 22.301113, 13.654255 )    13.14446168

     16    -0.788E-02     1.9156302980       13.1444273145      32.92  <-- CONV
        O_D=      0.0145654 O_OD=      2.3129019 O_TOT=     13.1444273 <-- SPRD
 Delta: O_D= -0.7360780E-02 O_OD= -0.5173250E-03 O_TOT= -0.7878105E-02 <-- DLTA
 ------------------------------------------------------------------------------
 Cycle:     17
  WF centre and spread    1  (  0.000021,  0.000011,  0.000005 )     0.40371067
  WF centre and spread    2  (  0.000006,  0.000004,  0.000001 )     0.38984172
  WF centre and spread    3  (  0.000003,  0.000000,  0.000001 )     0.37644484
  WF centre and spread    4  (  0.000004,  0.000000,  0.000001 )     0.37941672
  WF centre and spread    5  (  0.000000, -0.000001,  0.000000 )     0.39712417
  WF centre and spread    6  (  6.726930,  2.028831,  1.241630 )     1.45750577
  WF centre and spread    7  (  6.724037,  2.027534,  1.240990 )     1.09634142
  WF centre and spread    8  (  6.723186,  2.027256,  1.241323 )     0.60251315
  WF centre and spread    9  (  6.723166,  2.027256,  1.241348 )     0.63207684
  WF centre and spread   10  (  6.723126,  2.027229,  1.241343 )     0.85560100
  WF centre and spread   11  (  3.363881,  1.014450,  0.622266 )     1.22699687
  WF centre and spread   12  (  3.354146,  1.013113,  0.620421 )     0.99117438
  WF centre and spread   13  (  3.364165,  1.014205,  0.619848 )     1.05601692
  WF centre and spread   14  ( 10.083282,  3.040194,  1.860097 )     1.23157908
  WF centre and spread   15  ( 10.092047,  3.041022,  1.862214 )     0.99105413
  WF centre and spread   16  ( 10.081978,  3.040132,  1.862838 )     1.05624921
  Sum of centres and spreads ( 73.959979, 22.301236, 13.654327 )    13.14364689

     17    -0.815E-03     0.6789245686       13.1436125237      33.37  <-- CONV
        O_D=      0.0138274 O_OD=      2.3128252 O_TOT=     13.1436125 <-- SPRD
 Delta: O_D= -0.7380395E-03 O_OD= -0.7675120E-04 O_TOT= -0.8147907E-03 <-- DLTA
 ------------------------------------------------------------------------------
 Cycle:     18
  WF centre and spread    1  (  0.000021,  0.000010,  0.000004 )     0.40369646
  WF centre and spread    2  (  0.000006,  0.000004,  0.000001 )     0.38983493
  WF centre and spread    3  (  0.000003,  0.000000,  0.000001 )     0.37644001
  WF centre and spread    4  (  0.000004,  0.000000,  0.000001 )     0.37941220
  WF centre and spread    5  (  0.000000, -0.000001,  0.000000 )     0.39711990
  WF centre and spread    6  (  6.724445,  2.027877,  1.240962 )     1.45441744
  WF centre and spread    7  (  6.723941,  2.027481,  1.240955 )     1.09648229
  WF centre and spread    8  (  6.723185,  2.027253,  1.241323 )     0.60245507
  WF centre and spread    9  (  6.723166,  2.027255,  1.241347 )     0.63202344
  WF centre and spread   10  (  6.723126,  2.027232,  1.241343 )     0.85564473
  WF centre and spread   11  (  3.363868,  1.014440,  0.622262 )     1.22673731
  WF centre and spread   12  (  3.354143,  1.013112,  0.620421 )     0.99115089
  WF centre and spread   13  (  3.364164,  1.014203,  0.619848 )     1.05596297
  WF centre and spread   14  ( 10.083268,  3.040185,  1.860094 )     1.23131731
  WF centre and spread   15  ( 10.092047,  3.041021,  1.862214 )     0.99103985
  WF centre and spread   16  ( 10.081978,  3.040131,  1.862838 )     1.05618871
  Sum of centres and spreads ( 73.957363, 22.300204, 13.653614 )    13.13992352

     18    -0.372E-02     1.0399208994       13.1398891561      33.83  <-- CONV
        O_D=      0.0105042 O_OD=      2.3124250 O_TOT=     13.1398892 <-- SPRD
 Delta: O_D= -0.3323208E-02 O_OD= -0.4001596E-03 O_TOT= -0.3723368E-02 <-- DLTA
 ------------------------------------------------------------------------------
 Cycle:     19
  WF centre and spread    1  (  0.000021,  0.000010,  0.000004 )     0.40369506
  WF centre and spread    2  (  0.000006,  0.000004,  0.000001 )     0.38983429
  WF centre and spread    3  (  0.000003,  0.000000,  0.000001 )     0.37643963
  WF centre and spread    4  (  0.000004,  0.000000,  0.000001 )     0.37941185
  WF centre and spread    5  (  0.000000, -0.000001,  0.000000 )     0.39711956
  WF centre and spread    6  (  6.724160,  2.027786,  1.240898 )     1.45441867
  WF centre and spread    7  (  6.723937,  2.027478,  1.240953 )     1.09647357
  WF centre and spread    8  (  6.723185,  2.027253,  1.241323 )     0.60244921
  WF centre and spread    9  (  6.723166,  2.027255,  1.241347 )     0.63201835
  WF centre and spread   10  (  6.723126,  2.027232,  1.241343 )     0.85564656
  WF centre and spread   11  (  3.363867,  1.014440,  0.622261 )     1.22670841
  WF centre and spread   12  (  3.354143,  1.013112,  0.620421 )     0.99114885
  WF centre and spread   13  (  3.364164,  1.014203,  0.619848 )     1.05595844
  WF centre and spread   14  ( 10.083268,  3.040184,  1.860093 )     1.23128725
  WF centre and spread   15  ( 10.092047,  3.041021,  1.862214 )     0.99103834
  WF centre and spread   16  ( 10.081978,  3.040131,  1.862838 )     1.05618392
  Sum of centres and spreads ( 73.957073, 22.300109, 13.653548 )    13.13983200

     19    -0.915E-04     0.3555139630       13.1397976339      34.28  <-- CONV
        O_D=      0.0104712 O_OD=      2.3123665 O_TOT=     13.1397976 <-- SPRD
 Delta: O_D= -0.3299621E-04 O_OD= -0.5852598E-04 O_TOT= -0.9152219E-04 <-- DLTA
 ------------------------------------------------------------------------------
 Cycle:     20
  WF centre and spread    1  (  0.000021,  0.000010,  0.000004 )     0.40359282
  WF centre and spread    2  (  0.000006,  0.000004,  0.000001 )     0.38978805
  WF centre and spread    3  (  0.000003,  0.000000,  0.000001 )     0.37641339
  WF centre and spread    4  (  0.000004,  0.000000,  0.000001 )     0.37938688
  WF centre and spread    5  (  0.000000, -0.000001,  0.000000 )     0.39709583
  WF centre and spread    6  (  6.723198,  2.027675,  1.240691 )     1.46508013
  WF centre and spread    7  (  6.723952,  2.027485,  1.240939 )     1.09551736
  WF centre and spread    8  (  6.723184,  2.027254,  1.241323 )     0.60201728
  WF centre and spread    9  (  6.723166,  2.027255,  1.241347 )     0.63164740
  WF centre and spread   10  (  6.723126,  2.027233,  1.241344 )     0.85575301
  WF centre and spread   11  (  3.363866,  1.014439,  0.622257 )     1.22453746
  WF centre and spread   12  (  3.354136,  1.013113,  0.620421 )     0.99101704
  WF centre and spread   13  (  3.364165,  1.014203,  0.619850 )     1.05563152
  WF centre and spread   14  ( 10.083274,  3.040188,  1.860093 )     1.22904594
  WF centre and spread   15  ( 10.092053,  3.041021,  1.862214 )     0.99091281
  WF centre and spread   16  ( 10.081977,  3.040132,  1.862836 )     1.05585650
  Sum of centres and spreads ( 73.956131, 22.300012, 13.653323 )    13.14329344

     20     0.346E-02     0.2681062599       13.1432590748      34.73  <-- CONV
        O_D=      0.0185206 O_OD=      2.3077785 O_TOT=     13.1432591 <-- SPRD
 Delta: O_D=  0.8049445E-02 O_OD= -0.4588004E-02 O_TOT=  0.3461441E-02 <-- DLTA
 ------------------------------------------------------------------------------
 Cycle:     21
  WF centre and spread    1  (  0.000021,  0.000011,  0.000005 )     0.40359891
  WF centre and spread    2  (  0.000006,  0.000004,  0.000001 )     0.38979085
  WF centre and spread    3  (  0.000003,  0.000000,  0.000001 )     0.37641310
  WF centre and spread    4  (  0.000004,  0.000000,  0.000001 )     0.37938662
  WF centre and spread    5  (  0.000000, -0.000001,  0.000000 )     0.39709715
  WF centre and spread    6  (  6.731996,  2.030544,  1.242736 )     1.51442911
  WF centre and spread    7  (  6.724089,  2.027565,  1.240994 )     1.09606123
  WF centre and spread    8  (  6.723185,  2.027257,  1.241323 )     0.60202786
  WF centre and spread    9  (  6.723165,  2.027257,  1.241347 )     0.63165171
  WF centre and spread   10  (  6.723125,  2.027228,  1.241343 )     0.85582035
  WF centre and spread   11  (  3.363880,  1.014451,  0.622263 )     1.22466675
  WF centre and spread   12  (  3.354139,  1.013113,  0.620421 )     0.99103418
  WF centre and spread   13  (  3.364164,  1.014204,  0.619850 )     1.05563480
  WF centre and spread   14  ( 10.083286,  3.040201,  1.860100 )     1.22920091
  WF centre and spread   15  ( 10.092055,  3.041021,  1.862214 )     0.99091038
  WF centre and spread   16  ( 10.081978,  3.040134,  1.862837 )     1.05586989
  Sum of centres and spreads ( 73.965098, 22.302990, 13.655436 )    13.19359378

     21     0.503E-01     9.1537881859       13.1935594043      35.19  <-- CONV
        O_D=      0.0683480 O_OD=      2.3082515 O_TOT=     13.1935594 <-- SPRD
 Delta: O_D=  0.4982731E-01 O_OD=  0.4730239E-03 O_TOT=  0.5030033E-01 <-- DLTA
 ------------------------------------------------------------------------------
 Cycle:     22
  WF centre and spread    1  (  0.000021,  0.000010,  0.000005 )     0.40361482
  WF centre and spread    2  (  0.000006,  0.000004,  0.000001 )     0.38979828
  WF centre and spread    3  (  0.000003,  0.000000,  0.000001 )     0.37641231
  WF centre and spread    4  (  0.000004,  0.000000,  0.000001 )     0.37938585
  WF centre and spread    5  (  0.000000, -0.000001,  0.000000 )     0.39710093
  WF centre and spread    6  (  6.727811,  2.029193,  1.241883 )     1.46868383
  WF centre and spread    7  (  6.724082,  2.027561,  1.240994 )     1.09738779
  WF centre and spread    8  (  6.723185,  2.027257,  1.241323 )     0.60205359
  WF centre and spread    9  (  6.723165,  2.027257,  1.241347 )     0.63166098
  WF centre and spread   10  (  6.723126,  2.027228,  1.241343 )     0.85599491
  WF centre and spread   11  (  3.363877,  1.014449,  0.622262 )     1.22501410
  WF centre and spread   12  (  3.354140,  1.013113,  0.620422 )     0.99105489
  WF centre and spread   13  (  3.364163,  1.014203,  0.619849 )     1.05565648
  WF centre and spread   14  ( 10.083280,  3.040199,  1.860100 )     1.22955652
  WF centre and spread   15  ( 10.092054,  3.041021,  1.862214 )     0.99092819
  WF centre and spread   16  ( 10.081979,  3.040135,  1.862837 )     1.05589523
  Sum of centres and spreads ( 73.960895, 22.301630, 13.654582 )    13.15019870

     22    -0.434E-01     4.6664545280       13.1501643311      35.64  <-- CONV
        O_D=      0.0237108 O_OD=      2.3094936 O_TOT=     13.1501643 <-- SPRD
 Delta: O_D= -0.4463713E-01 O_OD=  0.1242060E-02 O_TOT= -0.4339507E-01 <-- DLTA
 ------------------------------------------------------------------------------
 Cycle:     23
  WF centre and spread    1  (  0.000021,  0.000010,  0.000004 )     0.40361509
  WF centre and spread    2  (  0.000006,  0.000004,  0.000001 )     0.38979861
  WF centre and spread    3  (  0.000003,  0.000000,  0.000001 )     0.37641006
  WF centre and spread    4  (  0.000004,  0.000000,  0.000001 )     0.37938369
  WF centre and spread    5  (  0.000000, -0.000001,  0.000000 )     0.39710125
  WF centre and spread    6  (  6.725833,  2.028489,  1.241320 )     1.45507105
  WF centre and spread    7  (  6.724003,  2.027516,  1.240961 )     1.09791334
  WF centre and spread    8  (  6.723184,  2.027255,  1.241323 )     0.60203264
  WF centre and spread    9  (  6.723165,  2.027256,  1.241347 )     0.63163690
  WF centre and spread   10  (  6.723126,  2.027231,  1.241343 )     0.85608769
  WF centre and spread   11  (  3.363869,  1.014442,  0.622258 )     1.22501864
  WF centre and spread   12  (  3.354139,  1.013113,  0.620422 )     0.99105027
  WF centre and spread   13  (  3.364162,  1.014202,  0.619849 )     1.05564684
  WF centre and spread   14  ( 10.083271,  3.040192,  1.860096 )     1.22954238
  WF centre and spread   15  ( 10.092052,  3.041021,  1.862213 )     0.99093276
  WF centre and spread   16  ( 10.081980,  3.040135,  1.862837 )     1.05588299
  Sum of centres and spreads ( 73.958818, 22.300863, 13.653978 )    13.13712419

     23    -0.131E-01     1.3719596907       13.1370898230      36.09  <-- CONV
        O_D=      0.0104055 O_OD=      2.3097244 O_TOT=     13.1370898 <-- SPRD
 Delta: O_D= -0.1330535E-01 O_OD=  0.2308467E-03 O_TOT= -0.1307451E-01 <-- DLTA
 ------------------------------------------------------------------------------
 Cycle:     24
  WF centre and spread    1  (  0.000021,  0.000010,  0.000004 )     0.40360458
  WF centre and spread    2  (  0.000006,  0.000004,  0.000001 )     0.38979376
  WF centre and spread    3  (  0.000003,  0.000000,  0.000001 )     0.37640697
  WF centre and spread    4  (  0.000004,  0.000000,  0.000001 )     0.37938077
  WF centre and spread    5  (  0.000000, -0.000001,  0.000000 )     0.39709857
  WF centre and spread    6  (  6.724674,  2.028052,  1.241020 )     1.45452208
  WF centre and spread    7  (  6.723963,  2.027494,  1.240949 )     1.09792250
  WF centre and spread    8  (  6.723183,  2.027254,  1.241322 )     0.60198803
  WF centre and spread    9  (  6.723165,  2.027255,  1.241347 )     0.63159736
  WF centre and spread   10  (  6.723127,  2.027232,  1.241343 )     0.85610871
  WF centre and spread   11  (  3.363861,  1.014437,  0.622256 )     1.22480686
  WF centre and spread   12  (  3.354137,  1.013113,  0.620422 )     0.99103587
  WF centre and spread   13  (  3.364162,  1.014201,  0.619849 )     1.05561142
  WF centre and spread   14  ( 10.083263,  3.040187,  1.860095 )     1.22933124
  WF centre and spread   15  ( 10.092052,  3.041020,  1.862213 )     0.99092137
  WF centre and spread   16  ( 10.081980,  3.040134,  1.862837 )     1.05584473
  Sum of centres and spreads ( 73.957600, 22.300393, 13.653662 )    13.13597482

     24    -0.115E-02     0.3481596040       13.1359404532      36.55  <-- CONV
        O_D=      0.0096119 O_OD=      2.3093686 O_TOT=     13.1359405 <-- SPRD
 Delta: O_D= -0.7936130E-03 O_OD= -0.3557568E-03 O_TOT= -0.1149370E-02 <-- DLTA
 ------------------------------------------------------------------------------
 Cycle:     25
  WF centre and spread    1  (  0.000021,  0.000010,  0.000004 )     0.40359328
  WF centre and spread    2  (  0.000006,  0.000004,  0.000001 )     0.38978866
  WF centre and spread    3  (  0.000003,  0.000000,  0.000001 )     0.37640404
  WF centre and spread    4  (  0.000004, -0.000000,  0.000001 )     0.37937797
  WF centre and spread    5  (  0.000000, -0.000001,  0.000000 )     0.39709599
  WF centre and spread    6  (  6.724890,  2.028140,  1.241043 )     1.45490094
  WF centre and spread    7  (  6.723953,  2.027489,  1.240944 )     1.09782586
  WF centre and spread    8  (  6.723183,  2.027254,  1.241322 )     0.60193931
  WF centre and spread    9  (  6.723165,  2.027255,  1.241347 )     0.63155547
  WF centre and spread   10  (  6.723127,  2.027232,  1.241344 )     0.85612243
  WF centre and spread   11  (  3.363860,  1.014435,  0.622255 )     1.22456394
  WF centre and spread   12  (  3.354136,  1.013113,  0.620422 )     0.99102072
  WF centre and spread   13  (  3.364162,  1.014201,  0.619849 )     1.05557574
  WF centre and spread   14  ( 10.083263,  3.040186,  1.860094 )     1.22907847
  WF centre and spread   15  ( 10.092053,  3.041020,  1.862213 )     0.99090810
  WF centre and spread   16  ( 10.081980,  3.040134,  1.862837 )     1.05580838
  Sum of centres and spreads ( 73.957804, 22.300474, 13.653678 )    13.13555931

     25    -0.416E-03     0.3310098483       13.1355249428      37.00  <-- CONV
        O_D=      0.0097021 O_OD=      2.3088629 O_TOT=     13.1355249 <-- SPRD
 Delta: O_D=  0.9025169E-04 O_OD= -0.5057620E-03 O_TOT= -0.4155103E-03 <-- DLTA
 ------------------------------------------------------------------------------
 Cycle:     26
  WF centre and spread    1  (  0.000018,  0.000009,  0.000004 )     0.40308720
  WF centre and spread    2  (  0.000005,  0.000003,  0.000001 )     0.38955706
  WF centre and spread    3  (  0.000003,  0.000000,  0.000001 )     0.37627150
  WF centre and spread    4  (  0.000003, -0.000000,  0.000001 )     0.37925235
  WF centre and spread    5  (  0.000000, -0.000001,  0.000000 )     0.39697382
  WF centre and spread    6  (  6.707628,  2.023029,  1.237766 )     2.02206561
  WF centre and spread    7  (  6.723844,  2.027455,  1.240945 )     1.09394533
  WF centre and spread    8  (  6.723172,  2.027246,  1.241319 )     0.59981550
  WF centre and spread    9  (  6.723156,  2.027248,  1.241343 )     0.62972408
  WF centre and spread   10  (  6.723126,  2.027232,  1.241343 )     0.85668523
  WF centre and spread   11  (  3.363758,  1.014392,  0.622242 )     1.21389266
  WF centre and spread   12  (  3.354096,  1.013114,  0.620424 )     0.99039168
  WF centre and spread   13  (  3.364162,  1.014195,  0.619856 )     1.05393344
  WF centre and spread   14  ( 10.083186,  3.040162,  1.860098 )     1.21831370
[...]
  WF centre and spread    3  (  0.000002,  0.000000,  0.000001 )     0.37592983
  WF centre and spread    4  (  0.000002, -0.000000,  0.000000 )     0.37893399
  WF centre and spread    5  ( -0.000000, -0.000001,  0.000001 )     0.39666673
  WF centre and spread    6  (  6.723070,  2.027583,  1.241137 )     1.47207517
  WF centre and spread    7  (  6.723400,  2.027243,  1.240987 )     1.11620859
  WF centre and spread    8  (  6.723143,  2.027213,  1.241312 )     0.59616209
  WF centre and spread    9  (  6.723133,  2.027219,  1.241334 )     0.62622168
  WF centre and spread   10  (  6.723114,  2.027226,  1.241343 )     0.86058816
  WF centre and spread   11  (  3.363564,  1.014277,  0.622234 )     1.19710367
  WF centre and spread   12  (  3.353984,  1.013119,  0.620433 )     0.98909682
  WF centre and spread   13  (  3.364142,  1.014152,  0.619864 )     1.05014040
  WF centre and spread   14  ( 10.083000,  3.040092,  1.860130 )     1.20182401
  WF centre and spread   15  ( 10.092155,  3.041013,  1.862207 )     0.98896051
  WF centre and spread   16  ( 10.081979,  3.040143,  1.862808 )     1.05020908
  Sum of centres and spreads ( 73.954704, 22.299287, 13.653793 )    13.09144665

     91    -0.638E-03     0.5476267906       13.0914122836      66.97  <-- CONV
        O_D=      0.0062867 O_OD=      2.2681656 O_TOT=     13.0914123 <-- SPRD
 Delta: O_D= -0.4958079E-03 O_OD= -0.1421841E-03 O_TOT= -0.6379920E-03 <-- DLTA
 ------------------------------------------------------------------------------
 Cycle:     92
  WF centre and spread    1  (  0.000012,  0.000006,  0.000003 )     0.40215807
  WF centre and spread    2  (  0.000003,  0.000002,  0.000001 )     0.38908447
  WF centre and spread    3  (  0.000002,  0.000000,  0.000001 )     0.37591561
  WF centre and spread    4  (  0.000002, -0.000000,  0.000000 )     0.37892045
  WF centre and spread    5  ( -0.000000, -0.000001,  0.000001 )     0.39665299
  WF centre and spread    6  (  6.732475,  2.030518,  1.243009 )     1.57823813
  WF centre and spread    7  (  6.723417,  2.027253,  1.241002 )     1.11545755
  WF centre and spread    8  (  6.723142,  2.027211,  1.241312 )     0.59590098
  WF centre and spread    9  (  6.723132,  2.027217,  1.241333 )     0.62599984
  WF centre and spread   10  (  6.723113,  2.027224,  1.241342 )     0.86063826
  WF centre and spread   11  (  3.363553,  1.014272,  0.622234 )     1.19578373
  WF centre and spread   12  (  3.353979,  1.013119,  0.620433 )     0.98902311
  WF centre and spread   13  (  3.364142,  1.014150,  0.619865 )     1.04996588
  WF centre and spread   14  ( 10.082993,  3.040090,  1.860131 )     1.20048740
  WF centre and spread   15  ( 10.092159,  3.041013,  1.862206 )     0.98888262
  WF centre and spread   16  ( 10.081979,  3.040143,  1.862807 )     1.05002897
  Sum of centres and spreads ( 73.964104, 22.302217, 13.655681 )    13.19313807

     92     0.102E+00     0.2141832013       13.1931036948      67.43  <-- CONV
        O_D=      0.1108576 O_OD=      2.2652862 O_TOT=     13.1931037 <-- SPRD
 Delta: O_D=  0.1045709E+00 O_OD= -0.2879443E-02 O_TOT=  0.1016914E+00 <-- DLTA
 ------------------------------------------------------------------------------
 Cycle:     93
  WF centre and spread    1  (  0.000010,  0.000005,  0.000002 )     0.40450426
  WF centre and spread    2  (  0.000003,  0.000002,  0.000001 )     0.38988626
  WF centre and spread    3  (  0.000002,  0.000000,  0.000001 )     0.37620262
  WF centre and spread    4  (  0.000002, -0.000000,  0.000000 )     0.37921692
  WF centre and spread    5  ( -0.000000, -0.000001,  0.000001 )     0.39666138
  WF centre and spread    6  (  6.724563,  2.028486,  1.241065 )     1.52944996
  WF centre and spread    7  (  6.723211,  2.027114,  1.241043 )     1.24046737
  WF centre and spread    8  (  6.723132,  2.027189,  1.241306 )     0.61132418
  WF centre and spread    9  (  6.723124,  2.027196,  1.241324 )     0.63818808
  WF centre and spread   10  (  6.723114,  2.027220,  1.241334 )     0.86131520
  WF centre and spread   11  (  3.363450,  1.014276,  0.622201 )     1.26613322
  WF centre and spread   12  (  3.353965,  1.013120,  0.620440 )     0.99508926
  WF centre and spread   13  (  3.364143,  1.014134,  0.619858 )     1.05352837
  WF centre and spread   14  ( 10.082896,  3.040001,  1.860194 )     1.27742763
  WF centre and spread   15  ( 10.092143,  3.041016,  1.862205 )     0.99409688
  WF centre and spread   16  ( 10.081978,  3.040132,  1.862806 )     1.05355606
  Sum of centres and spreads ( 73.955735, 22.299891, 13.653780 )    13.46704766

     93     0.274E+00  1040.1882133244       13.4670133003      67.88  <-- CONV
        O_D=      0.0179312 O_OD=      2.6321222 O_TOT=     13.4670133 <-- SPRD
 Delta: O_D= -0.9292640E-01 O_OD=  0.3668360E+00 O_TOT=  0.2739096E+00 <-- DLTA
 ------------------------------------------------------------------------------
 Cycle:     94
  WF centre and spread    1  (  0.000011,  0.000005,  0.000002 )     0.40448881
  WF centre and spread    2  (  0.000003,  0.000002,  0.000001 )     0.38987972
  WF centre and spread    3  (  0.000002,  0.000000,  0.000001 )     0.37619934
  WF centre and spread    4  (  0.000002, -0.000000,  0.000000 )     0.37921374
  WF centre and spread    5  ( -0.000000, -0.000001,  0.000001 )     0.39665889
  WF centre and spread    6  (  6.723408,  2.028081,  1.241332 )     1.52311772
  WF centre and spread    7  (  6.723377,  2.027182,  1.241063 )     1.24047558
  WF centre and spread    8  (  6.723139,  2.027193,  1.241308 )     0.61124453
  WF centre and spread    9  (  6.723130,  2.027199,  1.241326 )     0.63812153
  WF centre and spread   10  (  6.723114,  2.027220,  1.241335 )     0.86132729
  WF centre and spread   11  (  3.363490,  1.014293,  0.622203 )     1.26583332
  WF centre and spread   12  (  3.353966,  1.013121,  0.620441 )     0.99504490
  WF centre and spread   13  (  3.364144,  1.014135,  0.619859 )     1.05348680
  WF centre and spread   14  ( 10.082943,  3.040021,  1.860201 )     1.27713191
  WF centre and spread   15  ( 10.092145,  3.041016,  1.862205 )     0.99406263
  WF centre and spread   16  ( 10.081979,  3.040132,  1.862806 )     1.05351307
  Sum of centres and spreads ( 73.954853, 22.299600, 13.654083 )    13.45979978

     94    -0.725E-02     0.9311178658       13.4597654190      68.33  <-- CONV
        O_D=      0.0116175 O_OD=      2.6311880 O_TOT=     13.4597654 <-- SPRD
 Delta: O_D= -0.6313707E-02 O_OD= -0.9341742E-03 O_TOT= -0.7247881E-02 <-- DLTA
 ------------------------------------------------------------------------------
 Cycle:     95
  WF centre and spread    1  (  0.000011,  0.000005,  0.000003 )     0.40448177
  WF centre and spread    2  (  0.000003,  0.000002,  0.000001 )     0.38987662
  WF centre and spread    3  (  0.000002,  0.000000,  0.000001 )     0.37619773
  WF centre and spread    4  (  0.000002,  0.000000,  0.000000 )     0.37921220
  WF centre and spread    5  ( -0.000000, -0.000001,  0.000001 )     0.39665754
  WF centre and spread    6  (  6.723025,  2.027446,  1.241240 )     1.52134497
  WF centre and spread    7  (  6.723434,  2.027207,  1.241078 )     1.24057953
  WF centre and spread    8  (  6.723140,  2.027194,  1.241308 )     0.61121158
  WF centre and spread    9  (  6.723131,  2.027200,  1.241326 )     0.63809364
  WF centre and spread   10  (  6.723114,  2.027220,  1.241336 )     0.86133556
  WF centre and spread   11  (  3.363501,  1.014297,  0.622205 )     1.26571532
  WF centre and spread   12  (  3.353966,  1.013121,  0.620441 )     0.99502603
  WF centre and spread   13  (  3.364145,  1.014135,  0.619859 )     1.05346834
  WF centre and spread   14  ( 10.082955,  3.040026,  1.860204 )     1.27702722
  WF centre and spread   15  ( 10.092146,  3.041017,  1.862205 )     0.99404507
  WF centre and spread   16  ( 10.081979,  3.040132,  1.862806 )     1.05349085
  Sum of centres and spreads ( 73.954555, 22.299001, 13.654013 )    13.45776395

     95    -0.204E-02     0.9350521188       13.4577295912      68.79  <-- CONV
        O_D=      0.0098917 O_OD=      2.6308780 O_TOT=     13.4577296 <-- SPRD
 Delta: O_D= -0.1725800E-02 O_OD= -0.3100276E-03 O_TOT= -0.2035828E-02 <-- DLTA
 ------------------------------------------------------------------------------
 Cycle:     96
  WF centre and spread    1  (  0.000011,  0.000005,  0.000003 )     0.40442913
  WF centre and spread    2  (  0.000003,  0.000002,  0.000001 )     0.38985388
  WF centre and spread    3  (  0.000002,  0.000000,  0.000001 )     0.37618656
  WF centre and spread    4  (  0.000002,  0.000000,  0.000000 )     0.37920139
  WF centre and spread    5  ( -0.000000, -0.000001,  0.000001 )     0.39664861
  WF centre and spread    6  (  6.723229,  2.027415,  1.241504 )     1.52280438
  WF centre and spread    7  (  6.723500,  2.027257,  1.241083 )     1.24070379
  WF centre and spread    8  (  6.723143,  2.027195,  1.241309 )     0.61095575
  WF centre and spread    9  (  6.723133,  2.027201,  1.241327 )     0.63787993
  WF centre and spread   10  (  6.723113,  2.027221,  1.241337 )     0.86137232
  WF centre and spread   11  (  3.363516,  1.014304,  0.622202 )     1.26477672
  WF centre and spread   12  (  3.353966,  1.013121,  0.620441 )     0.99489923
  WF centre and spread   13  (  3.364145,  1.014136,  0.619860 )     1.05333548
  WF centre and spread   14  ( 10.082978,  3.040037,  1.860209 )     1.27605857
  WF centre and spread   15  ( 10.092150,  3.041017,  1.862205 )     0.99393515
  WF centre and spread   16  ( 10.081979,  3.040132,  1.862806 )     1.05334137
  Sum of centres and spreads ( 73.954871, 22.299042, 13.654288 )    13.45638227

     96    -0.138E-02     0.3075400663       13.4563479030      69.24  <-- CONV
        O_D=      0.0111669 O_OD=      2.6282211 O_TOT=     13.4563479 <-- SPRD
 Delta: O_D=  0.1275213E-02 O_OD= -0.2656901E-02 O_TOT= -0.1381688E-02 <-- DLTA
 ------------------------------------------------------------------------------
 Cycle:     97
  WF centre and spread    1  (  0.000011,  0.000005,  0.000003 )     0.40442838
  WF centre and spread    2  (  0.000003,  0.000002,  0.000001 )     0.38985351
  WF centre and spread    3  (  0.000002,  0.000000,  0.000001 )     0.37618629
  WF centre and spread    4  (  0.000002,  0.000000,  0.000000 )     0.37920114
  WF centre and spread    5  ( -0.000000, -0.000001,  0.000001 )     0.39664838
  WF centre and spread    6  (  6.723353,  2.027116,  1.241414 )     1.52047818
  WF centre and spread    7  (  6.723502,  2.027260,  1.241089 )     1.24077243
  WF centre and spread    8  (  6.723142,  2.027195,  1.241309 )     0.61095291
  WF centre and spread    9  (  6.723132,  2.027201,  1.241327 )     0.63787718
  WF centre and spread   10  (  6.723113,  2.027220,  1.241337 )     0.86137586
  WF centre and spread   11  (  3.363515,  1.014304,  0.622203 )     1.26477317
  WF centre and spread   12  (  3.353966,  1.013121,  0.620441 )     0.99489778
  WF centre and spread   13  (  3.364145,  1.014135,  0.619860 )     1.05333287
  WF centre and spread   14  ( 10.082977,  3.040036,  1.860209 )     1.27606336
  WF centre and spread   15  ( 10.092150,  3.041017,  1.862205 )     0.99393195
  WF centre and spread   16  ( 10.081979,  3.040132,  1.862806 )     1.05333790
  Sum of centres and spreads ( 73.954992, 22.298744, 13.654204 )    13.45411131

     97    -0.227E-02     1.5743836766       13.4540769475      69.70  <-- CONV
        O_D=      0.0088715 O_OD=      2.6282455 O_TOT=     13.4540769 <-- SPRD
 Delta: O_D= -0.2295363E-02 O_OD=  0.2440709E-04 O_TOT= -0.2270955E-02 <-- DLTA
 ------------------------------------------------------------------------------
 Cycle:     98
  WF centre and spread    1  (  0.000011,  0.000005,  0.000003 )     0.40442419
  WF centre and spread    2  (  0.000003,  0.000002,  0.000001 )     0.38985171
  WF centre and spread    3  (  0.000002,  0.000000,  0.000001 )     0.37618541
  WF centre and spread    4  (  0.000002,  0.000000,  0.000000 )     0.37920028
  WF centre and spread    5  ( -0.000000, -0.000001,  0.000001 )     0.39664767
  WF centre and spread    6  (  6.723729,  2.027497,  1.241641 )     1.52045310
  WF centre and spread    7  (  6.723503,  2.027264,  1.241089 )     1.24077591
  WF centre and spread    8  (  6.723142,  2.027195,  1.241309 )     0.61093244
  WF centre and spread    9  (  6.723132,  2.027201,  1.241327 )     0.63786009
  WF centre and spread   10  (  6.723113,  2.027220,  1.241337 )     0.86137858
  WF centre and spread   11  (  3.363514,  1.014304,  0.622202 )     1.26469809
  WF centre and spread   12  (  3.353966,  1.013121,  0.620441 )     0.99488820
  WF centre and spread   13  (  3.364145,  1.014136,  0.619860 )     1.05332139
  WF centre and spread   14  ( 10.082977,  3.040037,  1.860210 )     1.27598559
  WF centre and spread   15  ( 10.092150,  3.041017,  1.862205 )     0.99392335
  WF centre and spread   16  ( 10.081979,  3.040132,  1.862806 )     1.05332712
  Sum of centres and spreads ( 73.955369, 22.299132, 13.654432 )    13.45385312

     98    -0.258E-03     0.3454529013       13.4538187611      70.15  <-- CONV
        O_D=      0.0088264 O_OD=      2.6280324 O_TOT=     13.4538188 <-- SPRD
 Delta: O_D= -0.4513748E-04 O_OD= -0.2130489E-03 O_TOT= -0.2581864E-03 <-- DLTA
 ------------------------------------------------------------------------------
 Cycle:     99
  WF centre and spread    1  (  0.000011,  0.000005,  0.000002 )     0.40439405
  WF centre and spread    2  (  0.000003,  0.000002,  0.000001 )     0.38983862
  WF centre and spread    3  (  0.000002,  0.000000,  0.000001 )     0.37617897
  WF centre and spread    4  (  0.000002,  0.000000,  0.000000 )     0.37919406
  WF centre and spread    5  ( -0.000000, -0.000001,  0.000001 )     0.39664245
  WF centre and spread    6  (  6.722645,  2.027651,  1.241573 )     1.52116599
  WF centre and spread    7  (  6.723459,  2.027262,  1.241080 )     1.24087251
  WF centre and spread    8  (  6.723141,  2.027195,  1.241309 )     0.61078738
  WF centre and spread    9  (  6.723131,  2.027201,  1.241327 )     0.63773872
  WF centre and spread   10  (  6.723114,  2.027221,  1.241337 )     0.86139865
  WF centre and spread   11  (  3.363504,  1.014301,  0.622199 )     1.26416970
  WF centre and spread   12  (  3.353964,  1.013121,  0.620441 )     0.99481874
  WF centre and spread   13  (  3.364145,  1.014136,  0.619860 )     1.05324154
  WF centre and spread   14  ( 10.082969,  3.040035,  1.860210 )     1.27545035
  WF centre and spread   15  ( 10.092151,  3.041017,  1.862205 )     0.99386114
  WF centre and spread   16  ( 10.081978,  3.040132,  1.862805 )     1.05324484
  Sum of centres and spreads ( 73.954220, 22.299278, 13.654350 )    13.45299770

     99    -0.855E-03     0.3859298397       13.4529633405      70.61  <-- CONV
        O_D=      0.0094076 O_OD=      2.6265958 O_TOT=     13.4529633 <-- SPRD
 Delta: O_D=  0.5811964E-03 O_OD= -0.1436617E-02 O_TOT= -0.8554206E-03 <-- DLTA
 ------------------------------------------------------------------------------
 Cycle:    100
  WF centre and spread    1  (  0.000011,  0.000005,  0.000002 )     0.40439215
  WF centre and spread    2  (  0.000003,  0.000002,  0.000001 )     0.38983777
  WF centre and spread    3  (  0.000002,  0.000000,  0.000001 )     0.37617858
  WF centre and spread    4  (  0.000002, -0.000000,  0.000000 )     0.37919368
  WF centre and spread    5  ( -0.000000, -0.000001,  0.000001 )     0.39664211
  WF centre and spread    6  (  6.723806,  2.027772,  1.241677 )     1.52044511
  WF centre and spread    7  (  6.723473,  2.027267,  1.241082 )     1.24087857
  WF centre and spread    8  (  6.723141,  2.027195,  1.241309 )     0.61077966
  WF centre and spread    9  (  6.723131,  2.027201,  1.241327 )     0.63773249
  WF centre and spread   10  (  6.723114,  2.027221,  1.241337 )     0.86140096
  WF centre and spread   11  (  3.363507,  1.014302,  0.622199 )     1.26413448
  WF centre and spread   12  (  3.353964,  1.013121,  0.620441 )     0.99481383
  WF centre and spread   13  (  3.364145,  1.014136,  0.619860 )     1.05323757
  WF centre and spread   14  ( 10.082972,  3.040036,  1.860210 )     1.27541181
  WF centre and spread   15  ( 10.092152,  3.041017,  1.862205 )     0.99385568
  WF centre and spread   16  ( 10.081978,  3.040132,  1.862805 )     1.05323945
  Sum of centres and spreads ( 73.955401, 22.299405, 13.654458 )    13.45217390

    100    -0.824E-03     0.8352331229       13.4521395398      71.06  <-- CONV
        O_D=      0.0086901 O_OD=      2.6264894 O_TOT=     13.4521395 <-- SPRD
 Delta: O_D= -0.7174225E-03 O_OD= -0.1063782E-03 O_TOT= -0.8238007E-03 <-- DLTA
 ------------------------------------------------------------------------------

 Writing checkpoint file wanup.chk... done

 Final State
  WF centre and spread    1  (  0.000011,  0.000005,  0.000002 )     0.40439215
  WF centre and spread    2  (  0.000003,  0.000002,  0.000001 )     0.38983777
  WF centre and spread    3  (  0.000002,  0.000000,  0.000001 )     0.37617858
  WF centre and spread    4  (  0.000002, -0.000000,  0.000000 )     0.37919368
  WF centre and spread    5  ( -0.000000, -0.000001,  0.000001 )     0.39664211
  WF centre and spread    6  (  6.723806,  2.027772,  1.241677 )     1.52044511
  WF centre and spread    7  (  6.723473,  2.027267,  1.241082 )     1.24087857
  WF centre and spread    8  (  6.723141,  2.027195,  1.241309 )     0.61077966
  WF centre and spread    9  (  6.723131,  2.027201,  1.241327 )     0.63773249
  WF centre and spread   10  (  6.723114,  2.027221,  1.241337 )     0.86140096
  WF centre and spread   11  (  3.363507,  1.014302,  0.622199 )     1.26413448
  WF centre and spread   12  (  3.353964,  1.013121,  0.620441 )     0.99481383
  WF centre and spread   13  (  3.364145,  1.014136,  0.619860 )     1.05323757
  WF centre and spread   14  ( 10.082972,  3.040036,  1.860210 )     1.27541181
  WF centre and spread   15  ( 10.092152,  3.041017,  1.862205 )     0.99385568
  WF centre and spread   16  ( 10.081978,  3.040132,  1.862805 )     1.05323945
  Sum of centres and spreads ( 73.955401, 22.299405, 13.654458 )    13.45217390

         Spreads (Ang^2)       Omega I      =    10.816959952
        ================       Omega D      =     0.008690149
                               Omega OD     =     2.626489439
    Final Spread (Ang^2)       Omega Total  =    13.452139540
 ------------------------------------------------------------------------------
 Time for wannierise           45.692 (sec)

 Writing checkpoint file wanup.chk... done

 *---------------------------------------------------------------------------*
 |                               PLOTTING                                    |
 *---------------------------------------------------------------------------*

 Time for plotting             10.750 (sec)
 Total Execution Time         100.162 (sec)

 *===========================================================================*
 |                             TIMING INFORMATION                            |
 *===========================================================================*
 |    Tag                                                Ncalls      Time (s)|
 |---------------------------------------------------------------------------|
 |kmesh: get                                        :         1         7.388|
 |overlap: allocate                                 :         1         0.003|
 |overlap: read                                     :         1         9.969|
 |dis: main                                         :         1        26.036|
 |wann: main                                        :         1        45.692|
 |plot: main                                        :         1        10.750|
 *---------------------------------------------------------------------------*

 All done: wannier90 exiting
