 written on 20Jun2019 at 23:20:40 
          18
         151
    3    2    1    2    1    1    2    2    2    2    3    1    3    1    1
    2    1    1    1    2    1    1    1    1    2    1    1    1    1    1
    3    2    2    2    2    1    1    2    1    1    1    1    3    1    1
    1    1    1    1    1    1    1    1    2    1    1    1    1    2    1
    1    3    1    2    1    1    1    2    1    1    1    1    1    1    1
    1    1    1    1    1    1    1    1    2    1    1    1    2    1    3
    1    1    2    1    1    1    1    2    1    1    1    1    1    1    1
    1    1    1    3    1    1    1    1    2    1    1    2    2    2    2
    3    1    1    1    1    1    2    1    1    1    1    2    1    1    1
    2    1    1    3    1    3    2    2    2    2    1    1    2    1    2
    3
   -4    1    1    1    1    0.042337   -0.002369
   -4    1    1    2    1    0.003849   -0.000037
   -4    1    1    3    1    0.010293   -0.000397
   -4    1    1    4    1    0.010737   -0.000218
   -4    1    1    5    1   -0.000834    0.000019
   -4    1    1    6    1    0.026274   -0.000055
   -4    1    1    7    1   -0.031552   -0.000459
   -4    1    1    8    1   -0.003136   -0.000105
   -4    1    1    9    1    0.001152   -0.000983
   -4    1    1   10    1    0.003981    0.001024
   -4    1    1   11    1    0.002561    0.000145
   -4    1    1   12    1   -0.017499   -0.000106
   -4    1    1   13    1    0.032749   -0.000607
   -4    1    1   14    1   -0.013304    0.000256
   -4    1    1   15    1   -0.017140    0.000289
   -4    1    1   16    1   -0.158145   -0.001969
   -4    1    1   17    1   -0.162374   -0.000141
   -4    1    1   18    1   -0.142776    0.000995
   -4    1    1    1    2    0.002921   -0.000045
   -4    1    1    2    2    0.000241   -0.000007
   -4    1    1    3    2    0.000162   -0.000043
   -4    1    1    4    2    0.000198   -0.000026
   -4    1    1    5    2    0.000018    0.000007
   -4    1    1    6    2   -0.000687   -0.000013
   -4    1    1    7    2   -0.002577   -0.000072
   -4    1    1    8    2   -0.000468   -0.000014
   -4    1    1    9    2   -0.000145   -0.000072
   -4    1    1   10    2   -0.000242    0.000016
   -4    1    1   11    2    0.000017   -0.000017
   -4    1    1   12    2    0.000077   -0.000020
   -4    1    1   13    2    0.000036   -0.000076
   -4    1    1   14    2    0.000042    0.000304
   -4    1    1   15    2    0.000734   -0.000227
   -4    1    1   16    2   -0.012209   -0.000292
   -4    1    1   17    2    0.005656   -0.000181
   -4    1    1   18    2    0.006450    0.000498
   -4    1    1    1    3    0.008530   -0.000078
   -4    1    1    2    3    0.000407   -0.000019
   -4    1    1    3    3   -0.000430    0.000015
   -4    1    1    4    3    0.000128    0.000027
   -4    1    1    5    3    0.000494    0.000002
   -4    1    1    6    3    0.000487    0.000008
   -4    1    1    7    3    0.004785    0.000327
   -4    1    1    8    3   -0.000022   -0.000050
   -4    1    1    9    3    0.000519    0.000081
   -4    1    1   10    3    0.000938   -0.000029
   -4    1    1   11    3    0.000565   -0.000006
   -4    1    1   12    3   -0.000471   -0.000035
   -4    1    1   13    3   -0.000899    0.000333
   -4    1    1   14    3    0.000434   -0.000333
   -4    1    1   15    3    0.000236    0.000045
   -4    1    1   16    3   -0.035017    0.000165
   -4    1    1   17    3   -0.035300    0.000360
   -4    1    1   18    3   -0.023275   -0.000296
   -4    1    1    1    4    0.009269   -0.000384
   -4    1    1    2    4    0.000447   -0.000023
   -4    1    1    3    4    0.000132    0.000029
   -4    1    1    4    4   -0.000552    0.000032
   -4    1    1    5    4   -0.000527   -0.000007
   -4    1    1    6    4    0.000524   -0.000003
   -4    1    1    7    4   -0.000361   -0.000881
   -4    1    1    8    4    0.000224    0.000090
   -4    1    1    9    4    0.000774    0.000043
   -4    1    1   10    4    0.000315   -0.000014
   -4    1    1   11    4   -0.000501    0.000053
   -4    1    1   12    4    0.000059    0.000091
   -4    1    1   13    4   -0.001165   -0.000233
   -4    1    1   14    4    0.000121   -0.000281
   -4    1    1   15    4    0.001261    0.000628
   -4    1    1   16    4   -0.036292    0.000614
   -4    1    1   17    4   -0.021979    0.000105
   -4    1    1   18    4   -0.034112   -0.000778
   -4    1    1    1    5   -0.000395   -0.000002
   -4    1    1    2    5    0.000016   -0.000001
   -4    1    1    3    5    0.000460    0.000002
   -4    1    1    4    5   -0.000701    0.000011
   -4    1    1    5    5    0.000268   -0.000003
   -4    1    1    6    5   -0.000172   -0.000019
   -4    1    1    7    5    0.000093    0.000117
   -4    1    1    8    5    0.000060    0.000015
   -4    1    1    9    5    0.000633   -0.000000
   -4    1    1   10    5   -0.000529    0.000009
   -4    1    1   11    5   -0.000540    0.000007
   -4    1    1   12    5    0.000225    0.000026
   -4    1    1   13    5   -0.000497   -0.000084
   -4    1    1   14    5   -0.001173   -0.000006
   -4    1    1   15    5    0.002029    0.000099
   -4    1    1   16    5   -0.000131    0.000162
   -4    1    1   17    5   -0.006331   -0.000081
   -4    1    1   18    5    0.007289   -0.000136
   -4    1    1    1    6    0.026516   -0.000014
   -4    1    1    2    6   -0.000655   -0.000026
   -4    1    1    3    6    0.000314   -0.000013
   -4    1    1    4    6    0.000511    0.000009
   -4    1    1    5    6    0.000035    0.000024
   -4    1    1    6    6   -0.000633   -0.000008
   -4    1    1    7    6   -0.017511    0.000514
   -4    1    1    8    6   -0.000338   -0.000040
   -4    1    1    9    6   -0.000173    0.000039
   -4    1    1   10    6    0.000106   -0.000113
   -4    1    1   11    6    0.000141   -0.000148
   -4    1    1   12    6    0.001013   -0.000049
   -4    1    1   13    6    0.001223    0.000061
   -4    1    1   14    6    0.000183    0.000349
   -4    1    1   15    6    0.001714   -0.000491
   -4    1    1   16    6   -0.020929   -0.000130
   -4    1    1   17    6   -0.042843   -0.000255
   -4    1    1   18    6   -0.038020    0.000545
   -4    1    1    1    7    0.077262    0.000483
   -4    1    1    2    7   -0.001686    0.000136
   -4    1    1    3    7    0.009630    0.000830
   -4    1    1    4    7    0.010491    0.000651
   -4    1    1    5    7   -0.000962   -0.000100
   -4    1    1    6    7   -0.016606   -0.001355
   -4    1    1    7    7    0.051363   -0.000163
   -4    1    1    8    7    0.005282    0.000023
   -4    1    1    9    7    0.014761   -0.000115
   -4    1    1   10    7    0.009920    0.000089
   -4    1    1   11    7   -0.000163    0.000141
   -4    1    1   12    7    0.028356    0.000049
   -4    1    1   13    7   -0.014317    0.000343
   -4    1    1   14    7    0.001525   -0.001127
   -4    1    1   15    7    0.026490    0.000834
   -4    1    1   16    7    0.030693    0.001623
   -4    1    1   17    7   -0.013061   -0.000499
   -4    1    1   18    7   -0.012685   -0.000924
   -4    1    1    1    8    0.002132   -0.000255
   -4    1    1    2    8   -0.000063   -0.000001
   -4    1    1    3    8    0.000129    0.000036
   -4    1    1    4    8    0.000566   -0.000035
   -4    1    1    5    8    0.000182   -0.000014
   -4    1    1    6    8   -0.000875    0.000003
   -4    1    1    7    8    0.003114   -0.000036
   -4    1    1    8    8   -0.000191   -0.000001
   -4    1    1    9    8    0.000367    0.000022
   -4    1    1   10    8    0.000473   -0.000021
   -4    1    1   11    8   -0.000002   -0.000027
   -4    1    1   12    8   -0.000747   -0.000014
   -4    1    1   13    8   -0.001686   -0.000056
   -4    1    1   14    8    0.001084    0.000039
   -4    1    1   15    8   -0.000674    0.000038
   -4    1    1   16    8    0.000168   -0.000089
   -4    1    1   17    8   -0.000035    0.000163
   -4    1    1   18    8    0.000496   -0.000079
   -4    1    1    1    9    0.014329    0.000432
   -4    1    1    2    9    0.000103    0.000064
   -4    1    1    3    9   -0.001019   -0.000068
   -4    1    1    4    9   -0.000210   -0.000038
   -4    1    1    5    9    0.001116    0.000012
   -4    1    1    6    9   -0.000564   -0.000012
   -4    1    1    7    9    0.010045    0.000214
   -4    1    1    8    9    0.000164   -0.000003
   -4    1    1    9    9   -0.000127    0.000032
   -4    1    1   10    9   -0.000108   -0.000049
   -4    1    1   11    9    0.000297   -0.000020
   -4    1    1   12    9    0.000338    0.000011
   -4    1    1   13    9   -0.000486    0.000397
   -4    1    1   14    9    0.002972   -0.000250
   -4    1    1   15    9    0.000368   -0.000013
   -4    1    1   16    9   -0.000054    0.000328
   -4    1    1   17    9    0.001721   -0.000195
   -4    1    1   18    9   -0.000857   -0.000040
   -4    1    1    1   10    0.006361   -0.000579
   -4    1    1    2   10    0.000567   -0.000016
   -4    1    1    3   10    0.000000    0.000051
   -4    1    1    4   10   -0.001446    0.000006
   -4    1    1    5   10   -0.001333   -0.000004
   -4    1    1    6   10   -0.000012    0.000079
   -4    1    1    7   10    0.012133   -0.000096
   -4    1    1    8   10    0.000263    0.000003
   -4    1    1    9   10   -0.000075   -0.000043
   -4    1    1   10   10   -0.000502    0.000066
   -4    1    1   11   10   -0.000387    0.000040
   -4    1    1   12   10    0.000607   -0.000025
   -4    1    1   13   10    0.000657   -0.000463
   -4    1    1   14   10   -0.000590    0.000368
   -4    1    1   15   10    0.003141   -0.000044
   -4    1    1   16   10   -0.000612   -0.000293
   -4    1    1   17   10   -0.000730    0.000156
   -4    1    1   18   10    0.001268    0.000064
   -4    1    1    1   11   -0.003444   -0.000048
   -4    1    1    2   11    0.000070    0.000004
   -4    1    1    3   11    0.001104    0.000013
   -4    1    1    4   11   -0.001048   -0.000014
   -4    1    1    5   11   -0.000015   -0.000000
   -4    1    1    6   11    0.000139    0.000079
   -4    1    1    7   11    0.000187   -0.000156
   -4    1    1    8   11    0.000021    0.000016
   -4    1    1    9   11    0.000342   -0.000009
   -4    1    1   10   11   -0.000452    0.000031
   -4    1    1   11   11   -0.000111    0.000001
   -4    1    1   12   11    0.000002   -0.000037
   -4    1    1   13   11    0.000358   -0.000351
   -4    1    1   14   11   -0.001243    0.000243
   -4    1    1   15   11    0.000868    0.000058
   -4    1    1   16   11    0.000037   -0.000267
   -4    1    1   17   11   -0.001934    0.000183
   -4    1    1   18   11    0.001781    0.000017
   -4    1    1    1   12   -0.011621   -0.000112
   -4    1    1    2   12   -0.000455    0.000021
   -4    1    1    3   12   -0.000759    0.000010
   -4    1    1    4   12   -0.000172   -0.000019
   -4    1    1    5   12    0.000188    0.000006
   -4    1    1    6   12   -0.001259    0.000020
   -4    1    1    7   12    0.022655   -0.000109
   -4    1    1    8   12   -0.000569    0.000016
   -4    1    1    9   12    0.000540    0.000021
   -4    1    1   10   12    0.000903   -0.000001
   -4    1    1   11   12    0.000102   -0.000020
   -4    1    1   12   12   -0.000851   -0.000000
   -4    1    1   13   12   -0.002419   -0.000024
   -4    1    1   14   12    0.001155    0.000027
   -4    1    1   15   12   -0.000925    0.000037
   -4    1    1   16   12    0.000614   -0.000124
   -4    1    1   17   12    0.001202    0.000122
   -4    1    1   18   12    0.001875   -0.000057
   -4    1    1    1   13    0.005187    0.001582
   -4    1    1    2   13    0.003346   -0.000012
   -4    1    1    3   13   -0.000985   -0.000385
   -4    1    1    4   13   -0.000808    0.000182
   -4    1    1    5   13   -0.000529    0.000148
   -4    1    1    6   13   -0.000987   -0.000117
   -4    1    1    7   13   -0.020676    0.000068
   -4    1    1    8   13    0.001029    0.000060
   -4    1    1    9   13   -0.000853   -0.000453
   -4    1    1   10   13    0.000114    0.000328
   -4    1    1   11   13    0.000182    0.000386
   -4    1    1   12   13   -0.001539    0.000185
   -4    1    1   13   13   -0.002392    0.000539
   -4    1    1   14   13    0.005980   -0.000682
   -4    1    1   15   13    0.006810    0.000514
   -4    1    1   16   13    0.006400   -0.000440
   -4    1    1   17   13    0.007835   -0.000451
   -4    1    1   18   13    0.011989    0.000490
   -4    1    1    1   14   -0.014244   -0.000820
   -4    1    1    2   14   -0.001213   -0.000290
   -4    1    1    3   14   -0.001743    0.000480
   -4    1    1    4   14   -0.002421    0.000222
   -4    1    1    5   14    0.001202   -0.000052
   -4    1    1    6   14    0.000384   -0.000279
   -4    1    1    7   14    0.001409    0.000569
   -4    1    1    8   14   -0.000604   -0.000219
   -4    1    1    9   14   -0.000694    0.000174
   -4    1    1   10   14    0.000898   -0.000172
   -4    1    1   11   14    0.001959   -0.000228
   -4    1    1   12   14    0.000305   -0.000138
   -4    1    1   13   14    0.007390    0.000408
   -4    1    1   14   14   -0.013282    0.000250
   -4    1    1   15   14    0.014482   -0.001200
   -4    1    1   16   14    0.013008   -0.000477
   -4    1    1   17   14    0.019020    0.000490
   -4    1    1   18   14   -0.003276    0.000307
   -4    1    1    1   15   -0.036164    0.000112
   -4    1    1    2   15   -0.001280    0.000347
   -4    1    1    3   15   -0.000567   -0.000108
   -4    1    1    4   15   -0.000008   -0.000530
   -4    1    1    5   15   -0.000995   -0.000131
   -4    1    1    6   15    0.002016    0.000447
   -4    1    1    7   15    0.015530   -0.000678
   -4    1    1    8   15   -0.000951    0.000128
   -4    1    1    9   15    0.001771    0.000192
   -4    1    1   10   15   -0.001077   -0.000120
   -4    1    1   11   15   -0.002298   -0.000200
   -4    1    1   12   15   -0.001100   -0.000104
   -4    1    1   13   15    0.009710   -0.000886
   -4    1    1   14   15    0.014771    0.000858
   -4    1    1   15   15   -0.018926    0.000261
   -4    1    1   16   15    0.016644    0.000228
   -4    1    1   17   15   -0.007815   -0.000200
   -4    1    1   18   15    0.016427   -0.000040
   -4    1    1    1   16    0.059918    0.000164
   -4    1    1    2   16   -0.008758    0.000116
   -4    1    1    3   16    0.005815    0.000028
   -4    1    1    4   16    0.003197   -0.000113
   -4    1    1    5   16   -0.001029   -0.000114
   -4    1    1    6   16   -0.000247    0.000147
   -4    1    1    7   16    0.008803   -0.000041
   -4    1    1    8   16    0.001534    0.000145
   -4    1    1    9   16    0.000263   -0.000333
   -4    1    1   10   16   -0.000491    0.000403
   -4    1    1   11   16   -0.000082    0.000248
   -4    1    1   12   16   -0.004882    0.000128
   -4    1    1   13   16   -0.054189    0.000633
   -4    1    1   14   16    0.015189    0.000388
   -4    1    1   15   16    0.024217   -0.000459
   -4    1    1   16   16   -0.005212    0.000674
   -4    1    1   17   16    0.009619    0.000186
   -4    1    1   18   16    0.009220   -0.001293
   -4    1    1    1   17    0.043891   -0.000056
   -4    1    1    2   17    0.003471    0.000086
   -4    1    1    3   17    0.002837   -0.000254
   -4    1    1    4   17    0.002555   -0.000075
   -4    1    1    5   17   -0.003593    0.000027
   -4    1    1    6   17    0.000130    0.000127
   -4    1    1    7   17   -0.037862    0.000413
   -4    1    1    8   17   -0.000694   -0.000126
   -4    1    1    9   17   -0.001596    0.000354
   -4    1    1   10   17    0.000695   -0.000288
   -4    1    1   11   17    0.000822   -0.000252
   -4    1    1   12   17    0.003193   -0.000147
   -4    1    1   13   17    0.002987    0.000565
   -4    1    1   14   17   -0.018105   -0.000358
   -4    1    1   15   17   -0.030365    0.000062
   -4    1    1   16   17    0.011795   -0.000805
   -4    1    1   17   17   -0.022002    0.000317
   -4    1    1   18   17    0.015973    0.000903
   -4    1    1    1   18    0.067507   -0.000374
   -4    1    1    2   18    0.004253   -0.000196
   -4    1    1    3   18    0.000688    0.000120
   -4    1    1    4   18    0.003316    0.000244
   -4    1    1    5   18    0.003898    0.000084
   -4    1    1    6   18    0.004388   -0.000219
   -4    1    1    7   18   -0.022956   -0.000308
   -4    1    1    8   18   -0.000391   -0.000017
   -4    1    1    9   18   -0.000985   -0.000126
   -4    1    1   10   18   -0.002967   -0.000023
   -4    1    1   11   18   -0.000585    0.000056
   -4    1    1   12   18    0.003258    0.000066
   -4    1    1   13   18    0.016198   -0.000788
   -4    1    1   14   18   -0.024184   -0.000068
   -4    1    1   15   18   -0.028783    0.000095
   -4    1    1   16   18    0.008569    0.000615
   -4    1    1   17   18    0.018166   -0.000916
   -4    1    1   18   18   -0.021988    0.000366
   -3   -1    2    1    1    0.022669   -0.001543
   -3   -1    2    2    1    0.003052    0.000123
   -3   -1    2    3    1    0.002433   -0.000090
   -3   -1    2    4    1   -0.002274   -0.000214
   -3   -1    2    5    1    0.000805   -0.000022
   -3   -1    2    6    1    0.006110    0.000050
   -3   -1    2    7    1    0.009451    0.000031
   -3   -1    2    8    1   -0.004464   -0.000046
   -3   -1    2    9    1   -0.015801   -0.000884
   -3   -1    2   10    1   -0.002042    0.001026
   -3   -1    2   11    1   -0.001358    0.000129
   -3   -1    2   12    1   -0.014678   -0.000067
   -3   -1    2   13    1    0.015158    0.000038
   -3   -1    2   14    1   -0.029665   -0.000133
   -3   -1    2   15    1   -0.019014    0.000291
   -3   -1    2   16    1   -0.012560   -0.000073
   -3   -1    2   17    1   -0.013250   -0.000560
   -3   -1    2   18    1   -0.018888    0.001128
   -3   -1    2    1    2    0.003281    0.000112
   -3   -1    2    2    2   -0.000146   -0.000002
   -3   -1    2    3    2    0.000231   -0.000014
   -3   -1    2    4    2    0.000150   -0.000011
   -3   -1    2    5    2    0.000125   -0.000000
   -3   -1    2    6    2   -0.000135   -0.000013
   -3   -1    2    7    2   -0.002157   -0.000027
   -3   -1    2    8    2    0.000161   -0.000015
   -3   -1    2    9    2   -0.000196   -0.000078
   -3   -1    2   10    2    0.000020    0.000019
   -3   -1    2   11    2   -0.000186   -0.000004
   -3   -1    2   12    2    0.000624    0.000022
   -3   -1    2   13    2    0.000193    0.000161
   -3   -1    2   14    2   -0.000431    0.000128
   -3   -1    2   15    2   -0.000307   -0.000363
   -3   -1    2   16    2   -0.000888    0.000004
   -3   -1    2   17    2   -0.002345   -0.000221
   -3   -1    2   18    2   -0.000286    0.000240
   -3   -1    2    1    3    0.008362   -0.000071
   -3   -1    2    2    3    0.000304   -0.000003
   -3   -1    2    3    3    0.000143    0.000005
   -3   -1    2    4    3   -0.000329   -0.000010
   -3   -1    2    5    3    0.000197   -0.000019
   -3   -1    2    6    3    0.000204    0.000037
   -3   -1    2    7    3   -0.017687    0.000203
   -3   -1    2    8    3   -0.000062   -0.000023
   -3   -1    2    9    3    0.000328    0.000081
   -3   -1    2   10    3    0.000232   -0.000053
   -3   -1    2   11    3   -0.000066   -0.000031
   -3   -1    2   12    3   -0.000589   -0.000028
   -3   -1    2   13    3   -0.001863    0.000005
   -3   -1    2   14    3   -0.000949   -0.000039
   -3   -1    2   15    3    0.001217    0.000060
   -3   -1    2   16    3   -0.000844   -0.000146
   -3   -1    2   17    3   -0.005332    0.000382
   -3   -1    2   18    3    0.006977   -0.000197
   -3   -1    2    1    4   -0.010498   -0.000200
   -3   -1    2    2    4   -0.000030    0.000017
   -3   -1    2    3    4   -0.000024   -0.000012
   -3   -1    2    4    4   -0.000898    0.000021
   -3   -1    2    5    4   -0.000229    0.000007
   -3   -1    2    6    4    0.000282    0.000007
   -3   -1    2    7    4   -0.005006   -0.001405
   -3   -1    2    8    4    0.000271    0.000047
   -3   -1    2    9    4    0.000103    0.000050
   -3   -1    2   10    4   -0.000584   -0.000004
   -3   -1    2   11    4    0.000175    0.000024
   -3   -1    2   12    4    0.000649    0.000025
   -3   -1    2   13    4   -0.001140   -0.000231
   -3   -1    2   14    4   -0.001150   -0.000158
   -3   -1    2   15    4    0.000820    0.000557
   -3   -1    2   16    4   -0.004601    0.000195
   -3   -1    2   17    4    0.005029    0.000112
   -3   -1    2   18    4    0.002870   -0.000258
   -3   -1    2    1    5    0.000071   -0.000066
   -3   -1    2    2    5    0.000168   -0.000003
   -3   -1    2    3    5    0.000403    0.000007
   -3   -1    2    4    5   -0.000216    0.000004
   -3   -1    2    5    5   -0.000007    0.000001
   -3   -1    2    6    5    0.000167   -0.000036
   -3   -1    2    7    5   -0.001572    0.000152
   -3   -1    2    8    5   -0.000125    0.000006
   -3   -1    2    9    5   -0.000091    0.000001
   -3   -1    2   10    5    0.000204    0.000016
   -3   -1    2   11    5    0.000035    0.000008
   -3   -1    2   12    5    0.000605    0.000020
   -3   -1    2   13    5   -0.000706    0.000002
   -3   -1    2   14    5   -0.000293   -0.000052
   -3   -1    2   15    5   -0.000215    0.000083
   -3   -1    2   16    5   -0.004362    0.000110
   -3   -1    2   17    5    0.001523   -0.000105
   -3   -1    2   18    5   -0.000957   -0.000012
   -3   -1    2    1    6    0.003047    0.000144
   -3   -1    2    2    6   -0.000083   -0.000029
   -3   -1    2    3    6    0.000055    0.000036
   -3   -1    2    4    6    0.000476    0.000031
   -3   -1    2    5    6   -0.000138    0.000006
   -3   -1    2    6    6   -0.000900   -0.000034
   -3   -1    2    7    6   -0.016023    0.001210
   -3   -1    2    8    6    0.000286   -0.000016
   -3   -1    2    9    6   -0.000489    0.000000
   -3   -1    2   10    6    0.000112   -0.000086
   -3   -1    2   11    6    0.000269   -0.000066
   -3   -1    2   12    6    0.000106    0.000007
   -3   -1    2   13    6    0.000546    0.000132
   -3   -1    2   14    6   -0.000264    0.000186
   -3   -1    2   15    6    0.000592   -0.000502
   -3   -1    2   16    6   -0.001583    0.000005
   -3   -1    2   17    6   -0.005076   -0.000192
   -3   -1    2   18    6    0.005074    0.000098
   -3   -1    2    1    7   -0.003704    0.000784
   -3   -1    2    2    7    0.001329    0.000021
   -3   -1    2    3    7    0.015777    0.000810
   -3   -1    2    4    7   -0.007851    0.001161
   -3   -1    2    5    7    0.002617    0.000039
   -3   -1    2    6    7   -0.020076   -0.001667
   -3   -1    2    7    7    0.018315    0.000180
   -3   -1    2    8    7    0.003828    0.000298
   -3   -1    2    9    7    0.006047   -0.000209
   -3   -1    2   10    7   -0.002010   -0.000316
   -3   -1    2   11    7    0.000530   -0.000066
   -3   -1    2   12    7    0.004726    0.000092
   -3   -1    2   13    7   -0.045686   -0.001185
   -3   -1    2   14    7   -0.007364    0.000337
   -3   -1    2   15    7    0.001436    0.000139
   -3   -1    2   16    7    0.016812    0.001595
   -3   -1    2   17    7   -0.032425   -0.000455
   -3   -1    2   18    7   -0.011953   -0.000753
   -3   -1    2    1    8    0.007515   -0.000568
   -3   -1    2    2    8    0.000597    0.000003
   -3   -1    2    3    8    0.000705    0.000008
   -3   -1    2    4    8    0.001199   -0.000038
   -3   -1    2    5    8   -0.000495   -0.000005
   -3   -1    2    6    8   -0.000913    0.000059
   -3   -1    2    7    8    0.004419    0.000179
   -3   -1    2    8    8   -0.000198   -0.000007
   -3   -1    2    9    8    0.000288    0.000002
   -3   -1    2   10    8    0.000061   -0.000023
   -3   -1    2   11    8   -0.000040   -0.000020
   -3   -1    2   12    8   -0.000103   -0.000017
   -3   -1    2   13    8   -0.001874   -0.000154
   -3   -1    2   14    8    0.001688    0.000101
   -3   -1    2   15    8   -0.001429    0.000034
   -3   -1    2   16    8    0.000010   -0.000136
   -3   -1    2   17    8   -0.000283    0.000160
   -3   -1    2   18    8    0.000034    0.000031
   -3   -1    2    1    9    0.003749    0.000023
   -3   -1    2    2    9    0.000968    0.000025
   -3   -1    2    3    9   -0.001029   -0.000019
   -3   -1    2    4    9   -0.000206    0.000006
   -3   -1    2    5    9    0.001936    0.000007
   -3   -1    2    6    9   -0.000739    0.000007
   -3   -1    2    7    9    0.008406    0.000410
   -3   -1    2    8    9    0.000175   -0.000015
   -3   -1    2    9    9    0.000359    0.000027
   -3   -1    2   10    9   -0.000364   -0.000032
   -3   -1    2   11    9    0.000243   -0.000011
   -3   -1    2   12    9    0.000202   -0.000009
   -3   -1    2   13    9    0.000983    0.000126
   -3   -1    2   14    9   -0.000031   -0.000048
   -3   -1    2   15    9   -0.000242   -0.000038
   -3   -1    2   16    9   -0.001005    0.000044
   -3   -1    2   17    9    0.000342    0.000054
   -3   -1    2   18    9    0.000014   -0.000028
   -3   -1    2    1   10    0.010591    0.000752
   -3   -1    2    2   10    0.001485    0.000064
   -3   -1    2    3   10   -0.000286   -0.000021
   -3   -1    2    4   10   -0.000240   -0.000125
   -3   -1    2    5   10    0.000579   -0.000025
   -3   -1    2    6   10    0.000444    0.000107
   -3   -1    2    7   10   -0.006369   -0.000316
   -3   -1    2    8   10    0.000220   -0.000017
   -3   -1    2    9   10   -0.000208   -0.000011
   -3   -1    2   10   10   -0.000857    0.000019
   -3   -1    2   11   10   -0.000171    0.000002
   -3   -1    2   12   10    0.000379   -0.000016
   -3   -1    2   13   10   -0.000307   -0.000103
   -3   -1    2   14   10   -0.002347    0.000147
   -3   -1    2   15   10   -0.000107   -0.000027
   -3   -1    2   16   10   -0.000596   -0.000272
   -3   -1    2   17   10   -0.001328    0.000123
   -3   -1    2   18   10    0.000612    0.000068
   -3   -1    2    1   11    0.013217    0.000099
   -3   -1    2    2   11   -0.000547    0.000025
   -3   -1    2    3   11    0.001193   -0.000029
   -3   -1    2    4   11   -0.000553   -0.000084
   -3   -1    2    5   11   -0.000304   -0.000010
   -3   -1    2    6   11    0.001345    0.000105
   -3   -1    2    7   11    0.001834   -0.000356
   -3   -1    2    8   11   -0.000035    0.000006
   -3   -1    2    9   11    0.000258   -0.000010
   -3   -1    2   10   11   -0.000182    0.000021
   -3   -1    2   11   11   -0.000201    0.000013
   -3   -1    2   12   11   -0.000031   -0.000001
   -3   -1    2   13   11    0.000597   -0.000218
   -3   -1    2   14   11    0.000002    0.000197
   -3   -1    2   15   11   -0.000077    0.000073
   -3   -1    2   16   11   -0.000709   -0.000199
   -3   -1    2   17   11   -0.000703    0.000089
   -3   -1    2   18   11    0.000822    0.000018
   -3   -1    2    1   12   -0.016296   -0.000355
   -3   -1    2    2   12   -0.000040    0.000038
   -3   -1    2    3   12    0.000421   -0.000005
   -3   -1    2    4   12   -0.001049   -0.000074
   -3   -1    2    5   12    0.000742   -0.000010
   -3   -1    2    6   12   -0.000363    0.000089
   -3   -1    2    7   12    0.006418    0.000064
   -3   -1    2    8   12   -0.000385    0.000018
   -3   -1    2    9   12    0.000149    0.000009
   -3   -1    2   10   12    0.000767    0.000004
   -3   -1    2   11   12   -0.000021    0.000000
   -3   -1    2   12   12   -0.000900    0.000004
   -3   -1    2   13   12   -0.003658   -0.000210
   -3   -1    2   14   12   -0.001307    0.000158
   -3   -1    2   15   12   -0.001924    0.000156
   -3   -1    2   16   12    0.000617   -0.000173
   -3   -1    2   17   12   -0.000482    0.000161
   -3   -1    2   18   12    0.000698   -0.000035
   -3   -1    2    1   13    0.036983    0.000960
   -3   -1    2    2   13    0.002857   -0.000091
   -3   -1    2    3   13   -0.000231   -0.000111
   -3   -1    2    4   13   -0.001542    0.000209
   -3   -1    2    5   13   -0.002595    0.000061
   -3   -1    2    6   13    0.001271   -0.000177
   -3   -1    2    7   13    0.005113   -0.000902
   -3   -1    2    8   13   -0.000283    0.000027
   -3   -1    2    9   13   -0.000369   -0.000117
   -3   -1    2   10   13    0.001591    0.000312
   -3   -1    2   11   13    0.000534    0.000173
   -3   -1    2   12   13   -0.000766    0.000140
   -3   -1    2   13   13    0.004854    0.000332
   -3   -1    2   14   13   -0.000108   -0.000648
   -3   -1    2   15   13    0.006737    0.000815
   -3   -1    2   16   13   -0.003929    0.000036
   -3   -1    2   17   13   -0.011998   -0.000664
   -3   -1    2   18   13    0.002054    0.000406
   -3   -1    2    1   14    0.007602   -0.000588
   -3   -1    2    2   14   -0.001479   -0.000165
   -3   -1    2    3   14   -0.000554    0.000210
   -3   -1    2    4   14    0.002504    0.000191
   -3   -1    2    5   14    0.001903   -0.000031
   -3   -1    2    6   14    0.002653   -0.000245
   -3   -1    2    7   14    0.011774    0.002509
   -3   -1    2    8   14    0.000499   -0.000146
   -3   -1    2    9   14    0.000370   -0.000094
   -3   -1    2   10   14    0.000633   -0.000131
   -3   -1    2   11   14    0.001254   -0.000064
   -3   -1    2   12   14    0.000458   -0.000129
   -3   -1    2   13   14    0.003209    0.000632
   -3   -1    2   14   14   -0.002822    0.000144
   -3   -1    2   15   14    0.005791   -0.001359
   -3   -1    2   16   14   -0.015197   -0.000663
   -3   -1    2   17   14    0.010881    0.000621
   -3   -1    2   18   14   -0.002093    0.000148
   -3   -1    2    1   15   -0.015344   -0.000244
   -3   -1    2    2   15    0.000693    0.000199
   -3   -1    2    3   15   -0.003339   -0.000032
   -3   -1    2    4   15    0.003660   -0.000467
   -3   -1    2    5   15    0.002294   -0.000046
   -3   -1    2    6   15    0.001841    0.000489
   -3   -1    2    7   15    0.008603   -0.001224
   -3   -1    2    8   15   -0.000011    0.000055
   -3   -1    2    9   15    0.001340    0.000141
   -3   -1    2   10   15   -0.001318   -0.000129
   -3   -1    2   11   15   -0.000610   -0.000080
   -3   -1    2   12   15    0.000231   -0.000035
   -3   -1    2   13   15    0.004903   -0.000806
   -3   -1    2   14   15    0.006565    0.000602
   -3   -1    2   15   15   -0.017767    0.000230
   -3   -1    2   16   15    0.007858    0.000354
   -3   -1    2   17   15   -0.014700    0.000026
   -3   -1    2   18   15   -0.003107   -0.000253
   -3   -1    2    1   16    0.061878   -0.001021
   -3   -1    2    2   16   -0.005457    0.000207
   -3   -1    2    3   16   -0.005015   -0.000131
   -3   -1    2    4   16   -0.003003   -0.000281
   -3   -1    2    5   16   -0.005090   -0.000100
   -3   -1    2    6   16    0.001862    0.000379
   -3   -1    2    7   16    0.036050   -0.000476
   -3   -1    2    8   16    0.001776    0.000201
   -3   -1    2    9   16    0.001800   -0.000048
   -3   -1    2   10   16   -0.002311    0.000203
   -3   -1    2   11   16   -0.000927    0.000113
   -3   -1    2   12   16   -0.000056    0.000136
   -3   -1    2   13   16   -0.012125   -0.000289
   -3   -1    2   14   16    0.020754    0.000197
   -3   -1    2   15   16   -0.002389    0.001000
   -3   -1    2   16   16    0.003856    0.000248
   -3   -1    2   17   16   -0.000340    0.000402
   -3   -1    2   18   16    0.007951   -0.000775
   -3   -1    2    1   17    0.021732   -0.000523
   -3   -1    2    2   17   -0.003512   -0.000027
   -3   -1    2    3   17    0.000160    0.000061
   -3   -1    2    4   17    0.000963    0.000007
   -3   -1    2    5   17   -0.008789   -0.000034
   -3   -1    2    6   17   -0.003477   -0.000018
   -3   -1    2    7   17   -0.002206    0.000477
   -3   -1    2    8   17   -0.000746   -0.000104
   -3   -1    2    9   17   -0.000574    0.000140
   -3   -1    2   10   17    0.003549   -0.000184
   -3   -1    2   11   17    0.000764   -0.000163
   -3   -1    2   12   17    0.001364   -0.000105
   -3   -1    2   13   17    0.005955    0.000454
   -3   -1    2   14   17    0.004290    0.000017
   -3   -1    2   15   17   -0.006005   -0.000770
   -3   -1    2   16   17    0.004259   -0.000711
   -3   -1    2   17   17   -0.006867    0.000234
   -3   -1    2   18   17    0.005514    0.000498
   -3   -1    2    1   18   -0.040724    0.000991
   -3   -1    2    2   18    0.002864   -0.000281
   -3   -1    2    3   18    0.003224    0.000081
   -3   -1    2    4   18    0.005803    0.000540
   -3   -1    2    5   18    0.001188    0.000178
   -3   -1    2    6   18    0.004005   -0.000603
   -3   -1    2    7   18   -0.006114    0.000062
   -3   -1    2    8   18    0.000111   -0.000066
   -3   -1    2    9   18   -0.003025   -0.000071
   -3   -1    2   10   18    0.003119    0.000069
   -3   -1    2   11   18    0.001128    0.000089
   -3   -1    2   12   18    0.002931    0.000060
   -3   -1    2   13   18    0.002458    0.000529
   -3   -1    2   14   18   -0.026600   -0.000956
   -3   -1    2   15   18    0.007014   -0.000260
   -3   -1    2   16   18    0.004912    0.001260
   -3   -1    2   17   18    0.010989   -0.001336
   -3   -1    2   18   18   -0.019358    0.000127
   -3    0    1    1    1   -0.028240   -0.000078
   -3    0    1    2    1   -0.004554   -0.000168
   -3    0    1    3    1    0.001801    0.000084
   -3    0    1    4    1   -0.007321    0.000036
   -3    0    1    5    1    0.001860    0.000086
   -3    0    1    6    1   -0.000068   -0.000140
   -3    0    1    7    1   -0.007586    0.000862
   -3    0    1    8    1    0.007970    0.000061
   -3    0    1    9    1   -0.015327    0.000190
   -3    0    1   10    1    0.001452   -0.000149
   -3    0    1   11    1   -0.002757    0.000068
   -3    0    1   12    1    0.019951   -0.000007
   -3    0    1   13    1   -0.018134    0.001168
   -3    0    1   14    1   -0.016722   -0.000170
   -3    0    1   15    1    0.041354   -0.000613
   -3    0    1   16    1   -0.054765    0.002571
   -3    0    1   17    1    0.067766   -0.000370
   -3    0    1   18    1   -0.021495   -0.000717
   -3    0    1    1    2   -0.004570   -0.000174
   -3    0    1    2    2    0.000027    0.000004
   -3    0    1    3    2   -0.000133   -0.000022
   -3    0    1    4    2   -0.000356   -0.000118
   -3    0    1    5    2   -0.000100    0.000001
   -3    0    1    6    2   -0.000113    0.000119
   -3    0    1    7    2    0.003558    0.000156
   -3    0    1    8    2    0.000429    0.000019
   -3    0    1    9    2   -0.000383    0.000056
   -3    0    1   10    2   -0.000068    0.000012
   -3    0    1   11    2   -0.000289    0.000008
   -3    0    1   12    2   -0.000766   -0.000027
   -3    0    1   13    2   -0.000299   -0.000125
   -3    0    1   14    2    0.000058    0.000073
   -3    0    1   15    2   -0.000679    0.000193
   -3    0    1   16    2    0.003484   -0.000009
   -3    0    1   17    2   -0.002973    0.000149
   -3    0    1   18    2    0.004898   -0.000118
   -3    0    1    1    3   -0.001200   -0.000070
   -3    0    1    2    3   -0.000260   -0.000006
   -3    0    1    3    3    0.000302    0.000052
   -3    0    1    4    3    0.000309   -0.000009
   -3    0    1    5    3   -0.000183   -0.000024
   -3    0    1    6    3    0.000061   -0.000034
   -3    0    1    7    3   -0.025056    0.000048
   -3    0    1    8    3   -0.000504    0.000025
   -3    0    1    9    3   -0.000390   -0.000050
   -3    0    1   10    3   -0.000639   -0.000039
   -3    0    1   11    3   -0.000413    0.000011
   -3    0    1   12    3    0.000110    0.000028
   -3    0    1   13    3    0.002150   -0.000189
   -3    0    1   14    3   -0.000899    0.000133
   -3    0    1   15    3   -0.002013   -0.000113
   -3    0    1   16    3   -0.002320   -0.000254
   -3    0    1   17    3    0.042412    0.000169
   -3    0    1   18    3   -0.001209   -0.000014
   -3    0    1    1    4   -0.006859    0.000212
   -3    0    1    2    4   -0.000094   -0.000111
   -3    0    1    3    4   -0.000244   -0.000007
   -3    0    1    4    4    0.000196    0.000209
   -3    0    1    5    4    0.000347    0.000077
   -3    0    1    6    4   -0.000169   -0.000184
   -3    0    1    7    4   -0.000896    0.000386
   -3    0    1    8    4   -0.000255   -0.000047
   -3    0    1    9    4   -0.000138   -0.000020
   -3    0    1   10    4    0.000420    0.000026
   -3    0    1   11    4    0.000282    0.000010
   -3    0    1   12    4   -0.000520   -0.000011
   -3    0    1   13    4   -0.001908    0.000262
   -3    0    1   14    4    0.001124   -0.000230
   -3    0    1   15    4    0.002650   -0.000240
   -3    0    1   16    4    0.007136   -0.000190
   -3    0    1   17    4   -0.004577   -0.000265
   -3    0    1   18    4   -0.010051    0.000350
   -3    0    1    1    5    0.002855    0.000105
   -3    0    1    2    5   -0.000045   -0.000000
   -3    0    1    3    5   -0.000177   -0.000018
   -3    0    1    4    5    0.000494    0.000062
   -3    0    1    5    5    0.000065    0.000002
   -3    0    1    6    5   -0.000013   -0.000032
   -3    0    1    7    5   -0.003856    0.000073
   -3    0    1    8    5   -0.000147   -0.000011
   -3    0    1    9    5   -0.000385    0.000011
   -3    0    1   10    5    0.000457    0.000008
   -3    0    1   11    5   -0.000423   -0.000001
   -3    0    1   12    5   -0.000006   -0.000016
   -3    0    1   13    5   -0.001608    0.000124
   -3    0    1   14    5    0.001384   -0.000109
   -3    0    1   15    5    0.000700   -0.000039
   -3    0    1   16    5    0.002976   -0.000039
   -3    0    1   17    5   -0.006467   -0.000148
   -3    0    1   18    5   -0.001487    0.000196
   -3    0    1    1    6   -0.004757   -0.000215
   -3    0    1    2    6   -0.000103    0.000113
   -3    0    1    3    6    0.000274   -0.000035
   -3    0    1    4    6   -0.000207   -0.000183
   -3    0    1    5    6    0.000048   -0.000052
   -3    0    1    6    6    0.001000    0.000200
   -3    0    1    7    6    0.015419   -0.000336
   -3    0    1    8    6   -0.000889    0.000025
   -3    0    1    9    6    0.000372    0.000006
   -3    0    1   10    6    0.000502    0.000034
   -3    0    1   11    6   -0.000312    0.000036
   -3    0    1   12    6   -0.001045   -0.000038
   -3    0    1   13    6   -0.001422   -0.000443
   -3    0    1   14    6    0.001572    0.000236
   -3    0    1   15    6   -0.002478    0.000360
   -3    0    1   16    6    0.004569   -0.000396
   -3    0    1   17    6   -0.008533    0.000301
   -3    0    1   18    6    0.002456    0.000035
   -3    0    1    1    7    0.032513   -0.000469
   -3    0    1    2    7   -0.002429   -0.000027
   -3    0    1    3    7   -0.016916   -0.000605
   -3    0    1    4    7    0.012717   -0.000075
   -3    0    1    5    7    0.009520   -0.000161
   -3    0    1    6    7   -0.021495    0.000808
   -3    0    1    7    7   -0.027375   -0.008340
   -3    0    1    8    7   -0.003816   -0.000245
   -3    0    1    9    7   -0.001528   -0.000173
   -3    0    1   10    7   -0.007349   -0.001168
   -3    0    1   11    7    0.002855   -0.000520
   -3    0    1   12    7   -0.001148   -0.000972
   -3    0    1   13    7    0.000151   -0.000250
   -3    0    1   14    7    0.027291    0.001162
   -3    0    1   15    7   -0.013466   -0.002534
   -3    0    1   16    7   -0.010076   -0.001075
   -3    0    1   17    7   -0.005561   -0.000449
   -3    0    1   18    7    0.036658    0.003087
   -3    0    1    1    8   -0.010939   -0.000070
   -3    0    1    2    8    0.001029   -0.000002
   -3    0    1    3    8    0.001153    0.000012
   -3    0    1    4    8    0.000038    0.000031
   -3    0    1    5    8   -0.000367   -0.000001
   -3    0    1    6    8    0.001403   -0.000011
   -3    0    1    7    8   -0.002074   -0.000456
   -3    0    1    8    8    0.000091    0.000027
   -3    0    1    9    8   -0.000169   -0.000017
   -3    0    1   10    8   -0.000301    0.000062
   -3    0    1   11    8   -0.000029    0.000034
   -3    0    1   12    8   -0.000020    0.000027
   -3    0    1   13    8   -0.000136   -0.000105
   -3    0    1   14    8   -0.000407    0.000006
   -3    0    1   15    8   -0.001107    0.000078
   -3    0    1   16    8   -0.000166    0.000180
   -3    0    1   17    8    0.000436   -0.000147
   -3    0    1   18    8   -0.001358   -0.000106
   -3    0    1    1    9    0.003777   -0.000232
   -3    0    1    2    9    0.002315   -0.000061
   -3    0    1    3    9   -0.000278    0.000089
   -3    0    1    4    9   -0.001647    0.000029
   -3    0    1    5    9   -0.003139   -0.000022
   -3    0    1    6    9    0.000410   -0.000006
   -3    0    1    7    9   -0.003551   -0.000571
   -3    0    1    8    9   -0.000150   -0.000011
   -3    0    1    9    9   -0.000200    0.000059
   -3    0    1   10    9    0.000370   -0.000004
   -3    0    1   11    9   -0.000161    0.000005
   -3    0    1   12    9    0.000130   -0.000005
   -3    0    1   13    9    0.004253   -0.000433
   -3    0    1   14    9   -0.003112    0.000133
   -3    0    1   15    9    0.001540    0.000178
   -3    0    1   16    9   -0.000267   -0.000231
   -3    0    1   17    9   -0.003136    0.000252
   -3    0    1   18    9    0.000644   -0.000139
   -3    0    1    1   10    0.012113    0.000917
   -3    0    1    2   10   -0.000655    0.000043
   -3    0    1    3   10   -0.000403   -0.000082
   -3    0    1    4   10   -0.000721   -0.000049
   -3    0    1    5   10   -0.000713   -0.000017
   -3    0    1    6   10   -0.001030   -0.000053
   -3    0    1    7   10   -0.008586   -0.000957
   -3    0    1    8   10   -0.000274    0.000038
   -3    0    1    9   10    0.000015   -0.000010
   -3    0    1   10   10    0.000328    0.000024
   -3    0    1   11   10    0.000206    0.000041
   -3    0    1   12   10   -0.000652    0.000093
   -3    0    1   13   10   -0.005210    0.000467
   -3    0    1   14   10    0.000999   -0.000313
   -3    0    1   15   10    0.003621    0.000151
   -3    0    1   16   10   -0.002105    0.000199
   -3    0    1   17   10    0.000906   -0.000079
   -3    0    1   18   10    0.002949   -0.000276
   -3    0    1    1   11    0.006710    0.000085
   -3    0    1    2   11   -0.000006   -0.000005
   -3    0    1    3   11   -0.001968   -0.000045
   -3    0    1    4   11   -0.000153    0.000015
   -3    0    1    5   11    0.000033   -0.000002
   -3    0    1    6   11   -0.000067   -0.000053
   -3    0    1    7   11    0.002837   -0.000208
   -3    0    1    8   11    0.000072    0.000010
   -3    0    1    9   11   -0.000065   -0.000019
   -3    0    1   10   11    0.000423    0.000059
   -3    0    1   11   11    0.000204    0.000025
   -3    0    1   12   11   -0.000201    0.000051
   -3    0    1   13   11   -0.002234    0.000258
   -3    0    1   14   11    0.004089   -0.000263
   -3    0    1   15   11   -0.000507    0.000125
   -3    0    1   16   11   -0.001005    0.000222
   -3    0    1   17   11    0.001765   -0.000051
   -3    0    1   18   11   -0.000615   -0.000227
   -3    0    1    1   12   -0.029632    0.000106
   -3    0    1    2   12    0.000338   -0.000023
   -3    0    1    3   12   -0.000332    0.000021
   -3    0    1    4   12    0.001553    0.000051
   -3    0    1    5   12    0.001931   -0.000005
   -3    0    1    6   12    0.001657   -0.000051
   -3    0    1    7   12   -0.001849   -0.001184
   -3    0    1    8   12    0.000130    0.000006
   -3    0    1    9   12    0.000198   -0.000009
   -3    0    1   10   12   -0.000361    0.000086
   -3    0    1   11   12    0.000085    0.000055
   -3    0    1   12   12    0.001090    0.000024
   -3    0    1   13   12    0.001705    0.000001
   -3    0    1   14   12    0.003364   -0.000153
   -3    0    1   15   12   -0.003748    0.000109
   -3    0    1   16   12   -0.000734    0.000245
   -3    0    1   17   12    0.001827   -0.000133
   -3    0    1   18   12   -0.003506   -0.000221
   -3    0    1    1   13   -0.023780   -0.000434
   -3    0    1    2   13    0.001091   -0.000130
   -3    0    1    3   13   -0.006759    0.000189
   -3    0    1    4   13    0.005532    0.000034
   -3    0    1    5   13    0.002638    0.000000
   -3    0    1    6   13   -0.003356   -0.000142
   -3    0    1    7   13    0.008561    0.000543
   -3    0    1    8   13   -0.000789   -0.000191
   -3    0    1    9   13    0.001126    0.000263
   -3    0    1   10   13    0.000928   -0.000219
   -3    0    1   11   13    0.001012   -0.000207
   -3    0    1   12   13    0.001167   -0.000117
   -3    0    1   13   13   -0.003153    0.001126
   -3    0    1   14   13   -0.002957   -0.000483
   -3    0    1   15   13   -0.004278   -0.000769
   -3    0    1   16   13    0.021650    0.000953
   -3    0    1   17   13   -0.005410   -0.000097
   -3    0    1   18   13    0.002775   -0.000168
   -3    0    1    1   14   -0.024319    0.001181
   -3    0    1    2   14    0.001906    0.000370
   -3    0    1    3   14    0.004631   -0.000293
   -3    0    1    4   14   -0.000506   -0.000431
   -3    0    1    5   14   -0.004197   -0.000103
   -3    0    1    6   14   -0.005819    0.000340
   -3    0    1    7   14    0.006001   -0.000778
   -3    0    1    8   14   -0.000486    0.000151
   -3    0    1    9   14    0.000847   -0.000214
   -3    0    1   10   14    0.000047    0.000038
   -3    0    1   11   14   -0.001692   -0.000018
   -3    0    1   12   14   -0.001213   -0.000004
   -3    0    1   13   14   -0.003029   -0.000246
   -3    0    1   14   14    0.010651    0.000960
   -3    0    1   15   14   -0.003426   -0.000391
   -3    0    1   16   14    0.002628   -0.000501
   -3    0    1   17   14   -0.014228   -0.000681
   -3    0    1   18   14    0.012480    0.000899
   -3    0    1    1   15    0.022969   -0.000990
   -3    0    1    2   15    0.000014   -0.000185
   -3    0    1    3   15    0.000131    0.000124
   -3    0    1    4   15   -0.006935    0.000346
   -3    0    1    5   15    0.000197    0.000079
   -3    0    1    6   15    0.002617   -0.000099
   -3    0    1    7   15   -0.025769   -0.002580
   -3    0    1    8   15    0.001649    0.000095
   -3    0    1    9   15   -0.000837    0.000112
   -3    0    1   10   15   -0.002171    0.000278
   -3    0    1   11   15    0.000207    0.000246
   -3    0    1   12   15    0.002896    0.000185
   -3    0    1   13   15   -0.000246   -0.001074
   -3    0    1   14   15   -0.007667   -0.000424
   -3    0    1   15   15    0.014715    0.001634
   -3    0    1   16   15   -0.000240    0.000157
   -3    0    1   17   15    0.021282    0.000692
   -3    0    1   18   15   -0.010034   -0.001310
   -3    0    1    1   16    0.043324   -0.000140
   -3    0    1    2   16    0.006735   -0.000098
   -3    0    1    3   16   -0.007424   -0.000103
   -3    0    1    4   16   -0.014361    0.000272
   -3    0    1    5   16    0.002593    0.000179
   -3    0    1    6   16    0.002916   -0.000413
   -3    0    1    7   16   -0.024777   -0.001100
   -3    0    1    8   16    0.000174    0.000021
   -3    0    1    9   16   -0.006600    0.000435
   -3    0    1   10   16    0.007159   -0.000313
   -3    0    1   11   16    0.002620   -0.000068
   -3    0    1   12   16   -0.005747    0.000138
   -3    0    1   13   16    0.008493    0.000386
   -3    0    1   14   16    0.010433   -0.001611
   -3    0    1   15   16    0.004284    0.000829
   -3    0    1   16   16   -0.003421    0.001298
   -3    0    1   17   16   -0.001263   -0.000217
   -3    0    1   18   16   -0.004819   -0.000934
   -3    0    1    1   17   -0.040017   -0.000282
   -3    0    1    2   17   -0.001572    0.000093
   -3    0    1    3   17    0.005927    0.000135
   -3    0    1    4   17    0.004509   -0.000227
   -3    0    1    5   17   -0.000353   -0.000122
   -3    0    1    6   17   -0.001890    0.000213
   -3    0    1    7   17   -0.015891    0.000525
   -3    0    1    8   17    0.001355    0.000112
   -3    0    1    9   17    0.003888   -0.000193
   -3    0    1   10   17   -0.003852    0.000136
   -3    0    1   11   17   -0.004131    0.000070
   -3    0    1   12   17   -0.001544    0.000003
   -3    0    1   13   17    0.028758   -0.001400
   -3    0    1   14   17    0.005992    0.001047
   -3    0    1   15   17   -0.039018    0.000575
   -3    0    1   16   17   -0.003289   -0.000562
   -3    0    1   17   17    0.015326    0.000809
   -3    0    1   18   17   -0.005964   -0.000444
   -3    0    1    1   18   -0.047832    0.000170
   -3    0    1    2   18   -0.006648    0.000018
   -3    0    1    3   18   -0.002744   -0.000069
   -3    0    1    4   18    0.006865   -0.000167
   -3    0    1    5   18    0.000156   -0.000024
   -3    0    1    6   18    0.000576    0.000220
   -3    0    1    7   18    0.006023    0.002096
   -3    0    1    8   18    0.000023   -0.000194
   -3    0    1    9   18    0.000384   -0.000096
   -3    0    1   10   18   -0.005618   -0.000076
   -3    0    1   11   18    0.000535   -0.000172
   -3    0    1   12   18    0.003999   -0.000243
   -3    0    1   13   18   -0.006502    0.000994
   -3    0    1   14   18   -0.011485    0.000606
   -3    0    1   15   18   -0.006502   -0.001426
   -3    0    1   16   18   -0.000629   -0.001224
   -3    0    1   17   18   -0.009375   -0.000173
   -3    0    1   18   18    0.014419    0.001967
   -3    0    2    1    1   -0.048218    0.000141
   -3    0    2    2    1    0.000163   -0.000004
   -3    0    2    3    1    0.022797   -0.000033
   -3    0    2    4    1   -0.018251   -0.000029
   -3    0    2    5    1    0.000297   -0.000022
   -3    0    2    6    1   -0.002200   -0.000220
   -3    0    2    7    1   -0.001424    0.000391
   -3    0    2    8    1   -0.002928   -0.000152
   -3    0    2    9    1   -0.007877   -0.000520
   -3    0    2   10    1    0.000241    0.000200
   -3    0    2   11    1   -0.001012   -0.000073
   -3    0    2   12    1   -0.006961   -0.000012
   -3    0    2   13    1    0.008902    0.000343
   -3    0    2   14    1   -0.026437    0.000014
   -3    0    2   15    1    0.039186   -0.000219
   -3    0    2   16    1   -0.007671   -0.001385
   -3    0    2   17    1    0.015889    0.000740
   -3    0    2   18    1    0.006925    0.000312
   -3    0    2    1    2   -0.002343    0.000098
   -3    0    2    2    2    0.000415    0.000008
   -3    0    2    3    2    0.000870   -0.000033
   -3    0    2    4    2   -0.000933    0.000040
   -3    0    2    5    2   -0.000138    0.000004
   -3    0    2    6    2    0.002028    0.000006
   -3    0    2    7    2   -0.002477    0.000207
   -3    0    2    8    2    0.000037    0.000017
   -3    0    2    9    2   -0.000084    0.000003
   -3    0    2   10    2    0.000004    0.000100
   -3    0    2   11    2   -0.000149    0.000017
   -3    0    2   12    2    0.000143    0.000042
   -3    0    2   13    2    0.000457   -0.000178
   -3    0    2   14    2    0.001023    0.000002
   -3    0    2   15    2   -0.000762    0.000179
   -3    0    2   16    2   -0.002026    0.000067
   -3    0    2   17    2    0.000590   -0.000086
   -3    0    2   18    2   -0.000359   -0.000173
   -3    0    2    1    3    0.014067    0.000202
   -3    0    2    2    3    0.000670   -0.000012
   -3    0    2    3    3   -0.001369   -0.000011
   -3    0    2    4    3    0.000181   -0.000002
   -3    0    2    5    3    0.000851    0.000022
   -3    0    2    6    3   -0.000028   -0.000017
   -3    0    2    7    3   -0.000751    0.000811
   -3    0    2    8    3   -0.000095   -0.000046
   -3    0    2    9    3   -0.000536    0.000024
   -3    0    2   10    3   -0.000088   -0.000008
   -3    0    2   11    3    0.000202   -0.000003
   -3    0    2   12    3   -0.000163   -0.000018
   -3    0    2   13    3    0.001132    0.000140
   -3    0    2   14    3   -0.000265   -0.000146
   -3    0    2   15    3   -0.000236    0.000023
   -3    0    2   16    3    0.001229   -0.000015
   -3    0    2   17    3    0.004387    0.000097
   -3    0    2   18    3    0.002160    0.000071
   -3    0    2    1    4   -0.020403   -0.000444
   -3    0    2    2    4   -0.001314    0.000008
   -3    0    2    3    4    0.000014    0.000029
   -3    0    2    4    4    0.001555   -0.000018
   -3    0    2    5    4    0.001479   -0.000005
   -3    0    2    6    4   -0.000399    0.000029
   -3    0    2    7    4    0.000421    0.002056
   -3    0    2    8    4   -0.000196   -0.000024
   -3    0    2    9    4    0.000491    0.000011
   -3    0    2   10    4   -0.000203   -0.000144
   -3    0    2   11    4    0.000110   -0.000105
   -3    0    2   12    4   -0.000143   -0.000089
   -3    0    2   13    4    0.001214    0.000125
   -3    0    2   14    4   -0.000331    0.000163
   -3    0    2   15    4   -0.001959   -0.000485
   -3    0    2   16    4    0.003803    0.000017
   -3    0    2   17    4   -0.001196   -0.000001
   -3    0    2   18    4   -0.002101    0.000254
   -3    0    2    1    5   -0.001736   -0.000043
   -3    0    2    2    5   -0.000044    0.000007
   -3    0    2    3    5    0.000942   -0.000001
   -3    0    2    4    5    0.001302   -0.000014
   -3    0    2    5    5    0.000021    0.000000
   -3    0    2    6    5   -0.000050    0.000025
   -3    0    2    7    5   -0.001019   -0.000132
   -3    0    2    8    5   -0.000124    0.000001
   -3    0    2    9    5    0.000212   -0.000012
   -3    0    2   10    5    0.000103   -0.000022
   -3    0    2   11    5   -0.000186   -0.000010
   -3    0    2   12    5    0.000195   -0.000023
   -3    0    2   13    5    0.001314   -0.000004
   -3    0    2   14    5   -0.000568    0.000105
   -3    0    2   15    5   -0.001256   -0.000124
   -3    0    2   16    5    0.001438   -0.000029
   -3    0    2   17    5   -0.001605   -0.000028
   -3    0    2   18    5   -0.001283    0.000064
   -3    0    2    1    6   -0.016094    0.000035
   -3    0    2    2    6    0.001332    0.000034
   -3    0    2    3    6    0.000546   -0.000031
   -3    0    2    4    6   -0.000816   -0.000009
   -3    0    2    5    6   -0.000576   -0.000012
   -3    0    2    6    6    0.001529    0.000007
   -3    0    2    7    6   -0.008588   -0.002598
   -3    0    2    8    6    0.000263    0.000059
   -3    0    2    9    6   -0.000213    0.000039
   -3    0    2   10    6   -0.000020    0.000110
   -3    0    2   11    6   -0.000209    0.000063
   -3    0    2   12    6   -0.000045    0.000081
   -3    0    2   13    6    0.001389   -0.000302
   -3    0    2   14    6    0.002688   -0.000139
   -3    0    2   15    6   -0.002039    0.000576
   -3    0    2   16    6    0.000212    0.000301
   -3    0    2   17    6   -0.001264   -0.000109
   -3    0    2   18    6   -0.000583   -0.000449
   -3    0    2    1    7    0.002172   -0.000608
   -3    0    2    2    7    0.000354   -0.000090
   -3    0    2    3    7    0.005022    0.000518
   -3    0    2    4    7    0.003001   -0.002230
   -3    0    2    5    7    0.006705    0.000123
   -3    0    2    6    7   -0.008972    0.001401
   -3    0    2    7    7   -0.045825   -0.000134
   -3    0    2    8    7   -0.000297   -0.000022
   -3    0    2    9    7    0.026188    0.000560
   -3    0    2   10    7   -0.024117   -0.000276
   -3    0    2   11    7   -0.008343   -0.000125
   -3    0    2   12    7    0.004433    0.000128
   -3    0    2   13    7    0.041409    0.000149
   -3    0    2   14    7    0.042887    0.001186
   -3    0    2   15    7   -0.034329    0.000408
   -3    0    2   16    7    0.009342   -0.001565
   -3    0    2   17    7   -0.026800    0.002274
   -3    0    2   18    7    0.037955   -0.000965
   -3    0    2    1    8    0.010902    0.000555
   -3    0    2    2    8    0.000892   -0.000001
   -3    0    2    3    8    0.000189   -0.000006
   -3    0    2    4    8    0.000533    0.000044
   -3    0    2    5    8   -0.000794    0.000001
   -3    0    2    6    8    0.000224   -0.000051
   -3    0    2    7    8   -0.005454    0.000014
   -3    0    2    8    8    0.000414   -0.000006
   -3    0    2    9    8    0.000275    0.000036
   -3    0    2   10    8   -0.000842   -0.000036
   -3    0    2   11    8    0.000236   -0.000009
   -3    0    2   12    8    0.001291    0.000030
   -3    0    2   13    8   -0.002772    0.000141
   -3    0    2   14    8   -0.002553   -0.000208
   -3    0    2   15    8    0.002266    0.000051
   -3    0    2   16    8   -0.000112    0.000147
   -3    0    2   17    8    0.000702   -0.000026
   -3    0    2   18    8   -0.000901   -0.000173
   -3    0    2    1    9    0.008891   -0.000505
   -3    0    2    2    9    0.000663   -0.000016
   -3    0    2    3    9   -0.000667    0.000011
   -3    0    2    4    9   -0.000201    0.000008
   -3    0    2    5    9    0.001411    0.000016
   -3    0    2    6    9   -0.000076    0.000008
   -3    0    2    7    9    0.006563   -0.000313
   -3    0    2    8    9   -0.000003    0.000030
   -3    0    2    9    9   -0.000754   -0.000017
   -3    0    2   10    9    0.000739    0.000022
   -3    0    2   11    9    0.000673    0.000017
   -3    0    2   12    9   -0.000118    0.000017
   -3    0    2   13    9   -0.005159    0.000099
   -3    0    2   14    9    0.002482   -0.000002
   -3    0    2   15    9    0.000849   -0.000044
   -3    0    2   16    9    0.001218    0.000268
   -3    0    2   17    9   -0.000362   -0.000133
   -3    0    2   18    9    0.000582   -0.000129
   -3    0    2    1   10   -0.018441    0.000123
   -3    0    2    2   10    0.002006   -0.000051
   -3    0    2    3   10   -0.000144    0.000002
   -3    0    2    4   10    0.000064    0.000118
   -3    0    2    5   10    0.000007    0.000043
   -3    0    2    6   10   -0.001193   -0.000134
   -3    0    2    7   10   -0.013556   -0.000085
   -3    0    2    8   10   -0.001145   -0.000032
   -3    0    2    9   10    0.000138   -0.000026
   -3    0    2   10   10    0.001826    0.000027
   -3    0    2   11   10    0.000898    0.000018
   -3    0    2   12   10   -0.001247   -0.000014
   -3    0    2   13   10   -0.000629   -0.000005
   -3    0    2   14   10    0.000640   -0.000164
   -3    0    2   15   10    0.002108   -0.000038
   -3    0    2   16   10    0.002351    0.000075
   -3    0    2   17   10   -0.000203   -0.000207
   -3    0    2   18   10   -0.002896    0.000200
   -3    0    2    1   11    0.009773    0.000041
   -3    0    2    2   11   -0.000672   -0.000021
   -3    0    2    3   11    0.001220    0.000008
   -3    0    2    4   11    0.000268    0.000070
   -3    0    2    5   11   -0.000254    0.000007
   -3    0    2    6   11    0.000588   -0.000093
   -3    0    2    7   11   -0.003484    0.000075
   -3    0    2    8   11    0.000342   -0.000029
   -3    0    2    9   11    0.000429   -0.000015
   -3    0    2   10   11    0.001075   -0.000014
   -3    0    2   11   11    0.000331    0.000008
   -3    0    2   12   11   -0.000124   -0.000018
   -3    0    2   13   11   -0.002743    0.000073
   -3    0    2   14   11   -0.007348   -0.000157
   -3    0    2   15   11   -0.000486    0.000005
   -3    0    2   16   11    0.000584    0.000049
   -3    0    2   17   11    0.000121   -0.000105
   -3    0    2   18   11   -0.002068    0.000119
   -3    0    2    1   12   -0.015563    0.000360
   -3    0    2    2   12   -0.000686   -0.000015
   -3    0    2    3   12   -0.000923   -0.000008
   -3    0    2    4   12    0.000236    0.000063
   -3    0    2    5   12    0.002243    0.000028
   -3    0    2    6   12    0.000968   -0.000055
   -3    0    2    7   12   -0.013613   -0.000126
   -3    0    2    8   12    0.001163   -0.000016
   -3    0    2    9   12    0.000355    0.000009
   -3    0    2   10   12   -0.001670   -0.000031
   -3    0    2   11   12   -0.000248   -0.000021
   -3    0    2   12   12    0.001885    0.000006
   -3    0    2   13   12    0.003573    0.000155
   -3    0    2   14   12   -0.003301   -0.000136
   -3    0    2   15   12    0.002575   -0.000110
   -3    0    2   16   12   -0.000456    0.000150
   -3    0    2   17   12    0.002897   -0.000137
   -3    0    2   18   12   -0.001018    0.000023
   -3    0    2    1   13   -0.040525   -0.000241
   -3    0    2    2   13    0.004614    0.000086
   -3    0    2    3   13    0.001371   -0.000002
   -3    0    2    4   13    0.003124   -0.000191
   -3    0    2    5   13    0.008691    0.000007
   -3    0    2    6   13    0.002162    0.000249
   -3    0    2    7   13    0.008714    0.000843
   -3    0    2    8   13   -0.000225   -0.000044
   -3    0    2    9   13   -0.001158   -0.000290
   -3    0    2   10   13   -0.002589    0.000012
   -3    0    2   11   13   -0.000390   -0.000060
   -3    0    2   12   13    0.001178   -0.000213
   -3    0    2   13   13    0.011465   -0.000251
   -3    0    2   14   13   -0.003414    0.000804
   -3    0    2   15   13   -0.009043   -0.000721
   -3    0    2   16   13   -0.002554   -0.000767
   -3    0    2   17   13   -0.002297   -0.000080
   -3    0    2   18   13   -0.000326    0.001256
   -3    0    2    1   14   -0.042384   -0.000473
   -3    0    2    2   14    0.005394    0.000098
   -3    0    2    3   14    0.002312    0.000070
   -3    0    2    4   14   -0.004350   -0.000081
   -3    0    2    5   14    0.004675   -0.000021
   -3    0    2    6   14    0.002240    0.000088
   -3    0    2    7   14    0.010536   -0.001914
   -3    0    2    8   14   -0.000400    0.000026
   -3    0    2    9   14   -0.000789    0.000219
   -3    0    2   10   14    0.002004    0.000132
   -3    0    2   11   14   -0.000172    0.000094
   -3    0    2   12   14   -0.002256    0.000133
   -3    0    2   13   14    0.000257   -0.000778
   -3    0    2   14   14   -0.006769    0.000200
   -3    0    2   15   14    0.010789    0.000749
   -3    0    2   16   14   -0.002693   -0.000250
   -3    0    2   17   14    0.002953    0.000415
   -3    0    2   18   14   -0.003920   -0.000943
   -3    0    2    1   15    0.036803    0.000896
   -3    0    2    2   15   -0.003420   -0.000224
   -3    0    2    3   15    0.000934   -0.000022
   -3    0    2    4   15   -0.008957    0.000459
   -3    0    2    5   15   -0.004157    0.000035
   -3    0    2    6   15   -0.008472   -0.000530
   -3    0    2    7   15   -0.035380    0.000282
   -3    0    2    8   15    0.000676    0.000079
   -3    0    2    9   15   -0.001555    0.000060
   -3    0    2   10   15    0.003395   -0.000106
   -3    0    2   11   15    0.001073   -0.000013
   -3    0    2   12   15   -0.000577    0.000195
   -3    0    2   13   15   -0.013698    0.001278
   -3    0    2   14   15    0.006974   -0.001273
   -3    0    2   15   15    0.025250    0.000022
   -3    0    2   16   15   -0.000702    0.001578
   -3    0    2   17   15   -0.004425   -0.000964
   -3    0    2   18   15    0.004398   -0.000492
   -3    0    2    1   16   -0.041406    0.001127
   -3    0    2    2   16   -0.002819   -0.000093
   -3    0    2    3   16    0.000230   -0.000090
   -3    0    2    4   16   -0.001583    0.000367
   -3    0    2    5   16    0.000923    0.000130
   -3    0    2    6   16   -0.004436   -0.000247
   -3    0    2    7   16   -0.034821    0.001771
   -3    0    2    8   16   -0.000678   -0.000180
   -3    0    2    9   16    0.002718   -0.000204
   -3    0    2   10   16    0.005015   -0.000030
   -3    0    2   11   16    0.006659   -0.000037
   -3    0    2   12   16   -0.004311   -0.000123
   -3    0    2   13   16   -0.012941    0.000618
   -3    0    2   14   16    0.006075   -0.000260
   -3    0    2   15   16   -0.001599   -0.000940
   -3    0    2   16   16    0.011038    0.000008
   -3    0    2   17   16    0.011218   -0.000993
   -3    0    2   18   16   -0.019560    0.001449
   -3    0    2    1   17   -0.010028    0.000017
   -3    0    2    2   17    0.002643   -0.000117
   -3    0    2    3   17   -0.000441    0.000103
   -3    0    2    4   17   -0.000226   -0.000005
   -3    0    2    5   17    0.000770   -0.000054
   -3    0    2    6   17   -0.001666   -0.000078
   -3    0    2    7   17   -0.023803    0.000254
   -3    0    2    8   17    0.006425    0.000164
   -3    0    2    9   17    0.001840    0.000009
   -3    0    2   10   17   -0.008564    0.000240
   -3    0    2   11   17    0.003413    0.000170
   -3    0    2   12   17    0.010263    0.000107
   -3    0    2   13   17    0.031900   -0.000231
   -3    0    2   14   17   -0.005155   -0.000092
   -3    0    2   15   17   -0.032061    0.000869
   -3    0    2   16   17   -0.006650    0.000543
   -3    0    2   17   17   -0.014314    0.000132
   -3    0    2   18   17    0.026491   -0.000920
   -3    0    2    1   18   -0.009147   -0.001210
   -3    0    2    2   18   -0.001174    0.000271
   -3    0    2    3   18    0.001040   -0.000062
   -3    0    2    4   18   -0.002211   -0.000450
   -3    0    2    5   18   -0.001589   -0.000095
   -3    0    2    6   18   -0.000488    0.000470
   -3    0    2    7   18    0.018450   -0.001331
   -3    0    2    8   18   -0.000286    0.000041
   -3    0    2    9   18   -0.000080    0.000131
   -3    0    2   10   18   -0.006709   -0.000100
   -3    0    2   11   18   -0.003392   -0.000135
   -3    0    2   12   18   -0.006869   -0.000092
   -3    0    2   13   18   -0.016663   -0.000681
   -3    0    2   14   18   -0.002173    0.000839
   -3    0    2   15   18    0.026365    0.000141
   -3    0    2   16   18   -0.006772   -0.000915
   -3    0    2   17   18   -0.003726    0.000929
   -3    0    2   18   18    0.021357   -0.000120
   -3    1    0    1    1   -0.024321    0.004786
   -3    1    0    2    1   -0.001929    0.000274
   -3    1    0    3    1    0.013056    0.000420
   -3    1    0    4    1   -0.011312    0.000517
   -3    1    0    5    1    0.003011   -0.000107
   -3    1    0    6    1   -0.004953    0.000198
   -3    1    0    7    1   -0.001086   -0.000621
   -3    1    0    8    1    0.001531    0.000222
   -3    1    0    9    1    0.003890    0.000812
   -3    1    0   10    1    0.001710   -0.001450
   -3    1    0   11    1   -0.008674   -0.000177
   -3    1    0   12    1   -0.008273    0.000023
   -3    1    0   13    1    0.019967   -0.001079
   -3    1    0   14    1   -0.019067   -0.000249
   -3    1    0   15    1    0.015828    0.000665
   -3    1    0   16    1    0.003959    0.000088
   -3    1    0   17    1    0.080441    0.000051
   -3    1    0   18    1   -0.070503   -0.000541
   -3    1    0    1    2   -0.002123    0.000208
   -3    1    0    2    2    0.000053    0.000004
   -3    1    0    3    2    0.000163    0.000066
   -3    1    0    4    2   -0.000069    0.000096
   -3    1    0    5    2    0.000014   -0.000006
   -3    1    0    6    2    0.000492   -0.000044
   -3    1    0    7    2    0.004073    0.000162
   -3    1    0    8    2   -0.000462    0.000005
   -3    1    0    9    2    0.000231    0.000055
   -3    1    0   10    2    0.000355   -0.000044
   -3    1    0   11    2    0.000430    0.000009
   -3    1    0   12    2    0.000106    0.000061
   -3    1    0   13    2   -0.000221    0.000020
   -3    1    0   14    2    0.000059   -0.000251
   -3    1    0   15    2   -0.000598    0.000159
   -3    1    0   16    2    0.001005    0.000195
   -3    1    0   17    2    0.005710    0.000139
   -3    1    0   18    2   -0.004862   -0.000404
   -3    1    0    1    3    0.009754    0.000283
   -3    1    0    2    3    0.000096    0.000040
   -3    1    0    3    3    0.000457   -0.000109
   -3    1    0    4    3   -0.000143   -0.000012
   -3    1    0    5    3    0.000147    0.000029
   -3    1    0    6    3    0.000356    0.000032
   -3    1    0    7    3    0.006969    0.000065
   -3    1    0    8    3    0.000492    0.000011
   -3    1    0    9    3    0.000065   -0.000081
   -3    1    0   10    3   -0.000033    0.000092
   -3    1    0   11    3    0.000472    0.000046
   -3    1    0   12    3   -0.000051   -0.000011
   -3    1    0   13    3   -0.002531   -0.000069
   -3    1    0   14    3    0.000343    0.000056
   -3    1    0   15    3    0.001366    0.000054
   -3    1    0   16    3    0.007687    0.000156
   -3    1    0   17    3   -0.010511   -0.000531
   -3    1    0   18    3    0.000150    0.000374
   -3    1    0    1    4   -0.013854    0.000533
   -3    1    0    2    4   -0.000336    0.000102
   -3    1    0    3    4    0.000154   -0.000001
   -3    1    0    4    4    0.000382   -0.000210
   -3    1    0    5    4    0.000319   -0.000057
   -3    1    0    6    4   -0.000332    0.000087
   -3    1    0    7    4    0.004648    0.000756
   -3    1    0    8    4    0.000040   -0.000054
   -3    1    0    9    4   -0.000422   -0.000068
   -3    1    0   10    4   -0.000003    0.000023
   -3    1    0   11    4    0.000270   -0.000055
   -3    1    0   12    4    0.000348   -0.000080
   -3    1    0   13    4    0.002652    0.000220
   -3    1    0   14    4   -0.001778    0.000464
   -3    1    0   15    4   -0.002026   -0.000643
   -3    1    0   16    4   -0.008305   -0.000244
   -3    1    0   17    4   -0.006644    0.000105
   -3    1    0   18    4    0.006495    0.000385
   -3    1    0    1    5    0.002591   -0.000086
   -3    1    0    2    5   -0.000009   -0.000004
   -3    1    0    3    5    0.000210    0.000049
   -3    1    0    4    5    0.000422   -0.000075
   -3    1    0    5    5    0.000032   -0.000001
   -3    1    0    6    5    0.000348    0.000016
   -3    1    0    7    5   -0.002457   -0.000045
   -3    1    0    8    5    0.000154   -0.000009
   -3    1    0    9    5    0.000779   -0.000006
   -3    1    0   10    5    0.000233   -0.000008
   -3    1    0   11    5    0.000366   -0.000009
   -3    1    0   12    5    0.000134   -0.000011
   -3    1    0   13    5    0.001813    0.000031
   -3    1    0   14    5    0.000018    0.000165
   -3    1    0   15    5   -0.001872   -0.000188
   -3    1    0   16    5   -0.003289   -0.000134
   -3    1    0   17    5   -0.000429    0.000221
   -3    1    0   18    5   -0.001336   -0.000062
   -3    1    0    1    6   -0.007420    0.000264
   -3    1    0    2    6    0.000461   -0.000032
   -3    1    0    3    6    0.000232    0.000036
   -3    1    0    4    6   -0.000241    0.000076
   -3    1    0    5    6    0.000176    0.000005
   -3    1    0    6    6    0.000369   -0.000105
   -3    1    0    7    6   -0.012840   -0.000921
   -3    1    0    8    6    0.000545    0.000027
   -3    1    0    9    6   -0.000352   -0.000029
   -3    1    0   10    6    0.000146    0.000099
   -3    1    0   11    6    0.000428    0.000106
   -3    1    0   12    6   -0.000039    0.000094
   -3    1    0   13    6   -0.001095    0.000189
   -3    1    0   14    6   -0.000274   -0.000340
   -3    1    0   15    6   -0.001780    0.000210
   -3    1    0   16    6   -0.008285    0.000523
   -3    1    0   17    6    0.043464   -0.000050
   -3    1    0   18    6    0.006358   -0.000519
   -3    1    0    1    7   -0.019852   -0.000371
   -3    1    0    2    7   -0.004570   -0.000333
   -3    1    0    3    7   -0.031806   -0.000502
   -3    1    0    4    7    0.005691   -0.000912
   -3    1    0    5    7    0.008749    0.000142
   -3    1    0    6    7   -0.003117    0.000931
   -3    1    0    7    7   -0.026151    0.006545
   -3    1    0    8    7   -0.004103    0.000029
   -3    1    0    9    7    0.007646    0.000376
   -3    1    0   10    7   -0.012862    0.000916
   -3    1    0   11    7   -0.000617    0.000202
   -3    1    0   12    7   -0.008035    0.000604
   -3    1    0   13    7    0.025736   -0.000264
   -3    1    0   14    7    0.019082    0.000828
   -3    1    0   15    7   -0.016230    0.001400
   -3    1    0   16    7    0.019440   -0.001980
   -3    1    0   17    7   -0.032589    0.000687
   -3    1    0   18    7    0.024468   -0.000957
   -3    1    0    1    8   -0.003703    0.000326
   -3    1    0    2    8    0.000232    0.000012
   -3    1    0    3    8   -0.000782   -0.000037
   -3    1    0    4    8    0.000416    0.000009
   -3    1    0    5    8    0.000393    0.000010
   -3    1    0    6    8    0.001016   -0.000013
   -3    1    0    7    8   -0.002831    0.000024
   -3    1    0    8    8    0.000195   -0.000028
   -3    1    0    9    8    0.000001    0.000017
   -3    1    0   10    8   -0.000336   -0.000008
   -3    1    0   11    8   -0.000034    0.000005
   -3    1    0   12    8    0.000483    0.000002
   -3    1    0   13    8    0.001144    0.000198
   -3    1    0   14    8   -0.004399   -0.000102
   -3    1    0   15    8    0.003542   -0.000074
   -3    1    0   16    8   -0.000193   -0.000063
   -3    1    0   17    8   -0.000173   -0.000006
   -3    1    0   18    8    0.000412    0.000108
   -3    1    0    1    9   -0.050358    0.000219
   -3    1    0    2    9   -0.001935   -0.000005
   -3    1    0    3    9    0.002212   -0.000019
   -3    1    0    4    9    0.001621   -0.000001
   -3    1    0    5    9    0.000098    0.000008
   -3    1    0    6    9   -0.000252   -0.000002
   -3    1    0    7    9    0.015001    0.000453
   -3    1    0    8    9    0.000057    0.000028
   -3    1    0    9    9    0.000790   -0.000192
   -3    1    0   10    9   -0.000001    0.000105
   -3    1    0   11    9    0.000148    0.000068
   -3    1    0   12    9    0.000260    0.000005
   -3    1    0   13    9   -0.004918    0.000075
   -3    1    0   14    9    0.002781    0.000295
   -3    1    0   15    9    0.000397   -0.000354
   -3    1    0   16    9   -0.000068   -0.000156
   -3    1    0   17    9    0.001736   -0.000127
   -3    1    0   18    9   -0.000706    0.000219
   -3    1    0    1   10    0.023411   -0.000572
   -3    1    0    2   10    0.001624   -0.000048
   -3    1    0    3   10   -0.001417    0.000057
   -3    1    0    4   10   -0.001038    0.000060
   -3    1    0    5   10    0.000065    0.000005
   -3    1    0    6   10   -0.000388   -0.000060
   -3    1    0    7   10   -0.014708    0.000937
   -3    1    0    8   10   -0.000146   -0.000022
   -3    1    0    9   10    0.000191    0.000111
   -3    1    0   10   10    0.000048   -0.000127
   -3    1    0   11   10    0.000191   -0.000092
   -3    1    0   12   10   -0.000189   -0.000052
   -3    1    0   13   10    0.005195   -0.000231
   -3    1    0   14   10    0.000723   -0.000258
   -3    1    0   15   10   -0.006519    0.000295
   -3    1    0   16   10    0.001481    0.000261
   -3    1    0   17   10   -0.001018   -0.000056
   -3    1    0   18   10   -0.001742    0.000007
   -3    1    0    1   11    0.018680   -0.000089
   -3    1    0    2   11    0.000131   -0.000006
   -3    1    0    3   11   -0.001384    0.000023
   -3    1    0    4   11   -0.000568    0.000016
   -3    1    0    5   11    0.001044    0.000003
   -3    1    0    6   11   -0.001941   -0.000032
   -3    1    0    7   11   -0.001789    0.000075
   -3    1    0    8   11   -0.000105   -0.000018
   -3    1    0    9   11    0.000035    0.000074
   -3    1    0   10   11    0.000201   -0.000081
   -3    1    0   11   11    0.000037   -0.000025
   -3    1    0   12   11    0.000264   -0.000007
   -3    1    0   13   11    0.000786    0.000005
   -3    1    0   14   11    0.002596   -0.000172
   -3    1    0   15   11   -0.000600    0.000107
   -3    1    0   16   11    0.000438    0.000154
   -3    1    0   17   11    0.000205   -0.000126
   -3    1    0   18   11   -0.000902    0.000093
   -3    1    0    1   12    0.004146    0.000127
   -3    1    0    2   12    0.001261   -0.000028
   -3    1    0    3   12    0.000067   -0.000012
   -3    1    0    4   12   -0.001553   -0.000005
   -3    1    0    5   12   -0.003540    0.000001
   -3    1    0    6   12   -0.000247   -0.000013
   -3    1    0    7   12   -0.004747    0.000751
   -3    1    0    8   12    0.000318   -0.000013
   -3    1    0    9   12    0.000184    0.000005
   -3    1    0   10   12   -0.000586   -0.000054
   -3    1    0   11   12   -0.000053   -0.000020
   -3    1    0   12   12    0.000463   -0.000016
   -3    1    0   13   12    0.002052    0.000049
   -3    1    0   14   12   -0.003905    0.000020
   -3    1    0   15   12    0.005824   -0.000081
   -3    1    0   16   12   -0.000815    0.000008
   -3    1    0   17   12   -0.001366    0.000021
   -3    1    0   18   12   -0.001411    0.000120
   -3    1    0    1   13    0.009041   -0.002416
   -3    1    0    2   13   -0.002358   -0.000060
   -3    1    0    3   13    0.004251    0.000447
   -3    1    0    4   13   -0.005534    0.000058
   -3    1    0    5   13    0.000033   -0.000119
   -3    1    0    6   13    0.001301    0.000272
   -3    1    0    7   13   -0.011230    0.001664
   -3    1    0    8   13    0.000137    0.000127
   -3    1    0    9   13   -0.000116    0.000131
   -3    1    0   10   13   -0.000627   -0.000289
   -3    1    0   11   13   -0.000393   -0.000177
   -3    1    0   12   13    0.000898   -0.000150
   -3    1    0   13   13    0.004838   -0.002380
   -3    1    0   14   13    0.002307    0.001313
   -3    1    0   15   13   -0.004299    0.000311
   -3    1    0   16   13   -0.002634   -0.000776
   -3    1    0   17   13    0.012340    0.001150
   -3    1    0   18   13    0.000733   -0.000503
   -3    1    0    1   14   -0.049346   -0.000348
   -3    1    0    2   14    0.003903   -0.000035
   -3    1    0    3   14   -0.007337   -0.000118
   -3    1    0    4   14   -0.001006    0.000064
   -3    1    0    5   14   -0.003283    0.000100
   -3    1    0    6   14    0.002719   -0.000012
   -3    1    0    7   14    0.022455    0.000251
   -3    1    0    8   14    0.000761    0.000035
   -3    1    0    9   14    0.000714    0.000121
   -3    1    0   10   14   -0.000671    0.000089
   -3    1    0   11   14   -0.000741    0.000186
   -3    1    0   12   14   -0.000237    0.000075
   -3    1    0   13   14   -0.000994    0.000037
   -3    1    0   14   14    0.005243   -0.001178
   -3    1    0   15   14   -0.005659    0.001405
   -3    1    0   16   14    0.005840    0.001206
   -3    1    0   17   14   -0.005514    0.000278
   -3    1    0   18   14    0.005998   -0.001297
   -3    1    0    1   15    0.012799    0.001499
   -3    1    0    2   15   -0.002787   -0.000028
   -3    1    0    3   15   -0.000786   -0.000203
   -3    1    0    4   15    0.005623    0.000170
   -3    1    0    5   15    0.000316    0.000066
   -3    1    0    6   15   -0.008106   -0.000382
   -3    1    0    7   15   -0.029479    0.000341
   -3    1    0    8   15   -0.000484   -0.000161
   -3    1    0    9   15   -0.000272   -0.000299
   -3    1    0   10   15    0.001824    0.000059
   -3    1    0   11   15    0.001532    0.000009
   -3    1    0   12   15    0.000740    0.000047
   -3    1    0   13   15   -0.006238    0.002039
   -3    1    0   14   15   -0.005447   -0.000374
   -3    1    0   15   15    0.009378   -0.001509
   -3    1    0   16   15   -0.000363   -0.000225
   -3    1    0   17   15    0.004198   -0.001011
   -3    1    0   18   15    0.016595    0.001414
   -3    1    0    1   16   -0.046270   -0.001087
   -3    1    0    2   16    0.005217   -0.000277
   -3    1    0    3   16   -0.001615    0.000300
   -3    1    0    4   16    0.007285    0.000315
   -3    1    0    5   16    0.003801    0.000010
   -3    1    0    6   16   -0.003618    0.000046
   -3    1    0    7   16    0.004038    0.000853
   -3    1    0    8   16   -0.001104   -0.000186
   -3    1    0    9   16    0.004896   -0.000177
   -3    1    0   10   16   -0.007341    0.000225
   -3    1    0   11   16   -0.000627   -0.000037
   -3    1    0   12   16    0.004374   -0.000230
   -3    1    0   13   16    0.005986   -0.001242
   -3    1    0   14   16   -0.048991    0.000935
   -3    1    0   15   16    0.001674   -0.000261
   -3    1    0   16   16    0.007312   -0.002224
   -3    1    0   17   16   -0.002877   -0.000066
[...]
    3    1   -2   16   14    0.020754   -0.000197
    3    1   -2   17   14    0.004290   -0.000017
    3    1   -2   18   14   -0.026600    0.000956
    3    1   -2    1   15   -0.019014   -0.000291
    3    1   -2    2   15   -0.000307    0.000363
    3    1   -2    3   15    0.001217   -0.000060
    3    1   -2    4   15    0.000820   -0.000557
    3    1   -2    5   15   -0.000215   -0.000083
    3    1   -2    6   15    0.000592    0.000502
    3    1   -2    7   15    0.001436   -0.000139
    3    1   -2    8   15   -0.001429   -0.000034
    3    1   -2    9   15   -0.000242    0.000038
    3    1   -2   10   15   -0.000107    0.000027
    3    1   -2   11   15   -0.000077   -0.000073
    3    1   -2   12   15   -0.001924   -0.000156
    3    1   -2   13   15    0.006737   -0.000815
    3    1   -2   14   15    0.005791    0.001359
    3    1   -2   15   15   -0.017767   -0.000230
    3    1   -2   16   15   -0.002389   -0.001000
    3    1   -2   17   15   -0.006005    0.000770
    3    1   -2   18   15    0.007014    0.000260
    3    1   -2    1   16   -0.012560    0.000073
    3    1   -2    2   16   -0.000888   -0.000004
    3    1   -2    3   16   -0.000844    0.000146
    3    1   -2    4   16   -0.004601   -0.000195
    3    1   -2    5   16   -0.004362   -0.000110
    3    1   -2    6   16   -0.001583   -0.000005
    3    1   -2    7   16    0.016812   -0.001595
    3    1   -2    8   16    0.000010    0.000136
    3    1   -2    9   16   -0.001005   -0.000044
    3    1   -2   10   16   -0.000596    0.000272
    3    1   -2   11   16   -0.000709    0.000199
    3    1   -2   12   16    0.000617    0.000173
    3    1   -2   13   16   -0.003929   -0.000036
    3    1   -2   14   16   -0.015197    0.000663
    3    1   -2   15   16    0.007858   -0.000354
    3    1   -2   16   16    0.003856   -0.000248
    3    1   -2   17   16    0.004259    0.000711
    3    1   -2   18   16    0.004912   -0.001260
    3    1   -2    1   17   -0.013250    0.000560
    3    1   -2    2   17   -0.002345    0.000221
    3    1   -2    3   17   -0.005332   -0.000382
    3    1   -2    4   17    0.005029   -0.000112
    3    1   -2    5   17    0.001523    0.000105
    3    1   -2    6   17   -0.005076    0.000192
    3    1   -2    7   17   -0.032425    0.000455
    3    1   -2    8   17   -0.000283   -0.000160
    3    1   -2    9   17    0.000342   -0.000054
    3    1   -2   10   17   -0.001328   -0.000123
    3    1   -2   11   17   -0.000703   -0.000089
    3    1   -2   12   17   -0.000482   -0.000161
    3    1   -2   13   17   -0.011998    0.000664
    3    1   -2   14   17    0.010881   -0.000621
    3    1   -2   15   17   -0.014700   -0.000026
    3    1   -2   16   17   -0.000340   -0.000402
    3    1   -2   17   17   -0.006867   -0.000234
    3    1   -2   18   17    0.010989    0.001336
    3    1   -2    1   18   -0.018888   -0.001128
    3    1   -2    2   18   -0.000286   -0.000240
    3    1   -2    3   18    0.006977    0.000197
    3    1   -2    4   18    0.002870    0.000258
    3    1   -2    5   18   -0.000957    0.000012
    3    1   -2    6   18    0.005074   -0.000098
    3    1   -2    7   18   -0.011953    0.000753
    3    1   -2    8   18    0.000034   -0.000031
    3    1   -2    9   18    0.000014    0.000028
    3    1   -2   10   18    0.000612   -0.000068
    3    1   -2   11   18    0.000822   -0.000018
    3    1   -2   12   18    0.000698    0.000035
    3    1   -2   13   18    0.002054   -0.000406
    3    1   -2   14   18   -0.002093   -0.000148
    3    1   -2   15   18   -0.003107    0.000253
    3    1   -2   16   18    0.007951    0.000775
    3    1   -2   17   18    0.005514   -0.000498
    3    1   -2   18   18   -0.019358   -0.000127
    4   -1   -1    1    1    0.042337    0.002369
    4   -1   -1    2    1    0.002921    0.000045
    4   -1   -1    3    1    0.008530    0.000078
    4   -1   -1    4    1    0.009269    0.000384
    4   -1   -1    5    1   -0.000395    0.000002
    4   -1   -1    6    1    0.026516    0.000014
    4   -1   -1    7    1    0.077262   -0.000483
    4   -1   -1    8    1    0.002132    0.000255
    4   -1   -1    9    1    0.014329   -0.000432
    4   -1   -1   10    1    0.006361    0.000579
    4   -1   -1   11    1   -0.003444    0.000048
    4   -1   -1   12    1   -0.011621    0.000112
    4   -1   -1   13    1    0.005187   -0.001582
    4   -1   -1   14    1   -0.014244    0.000820
    4   -1   -1   15    1   -0.036164   -0.000112
    4   -1   -1   16    1    0.059918   -0.000164
    4   -1   -1   17    1    0.043891    0.000056
    4   -1   -1   18    1    0.067507    0.000374
    4   -1   -1    1    2    0.003849    0.000037
    4   -1   -1    2    2    0.000241    0.000007
    4   -1   -1    3    2    0.000407    0.000019
    4   -1   -1    4    2    0.000447    0.000023
    4   -1   -1    5    2    0.000016    0.000001
    4   -1   -1    6    2   -0.000655    0.000026
    4   -1   -1    7    2   -0.001686   -0.000136
    4   -1   -1    8    2   -0.000063    0.000001
    4   -1   -1    9    2    0.000103   -0.000064
    4   -1   -1   10    2    0.000567    0.000016
    4   -1   -1   11    2    0.000070   -0.000004
    4   -1   -1   12    2   -0.000455   -0.000021
    4   -1   -1   13    2    0.003346    0.000012
    4   -1   -1   14    2   -0.001213    0.000290
    4   -1   -1   15    2   -0.001280   -0.000347
    4   -1   -1   16    2   -0.008758   -0.000116
    4   -1   -1   17    2    0.003471   -0.000086
    4   -1   -1   18    2    0.004253    0.000196
    4   -1   -1    1    3    0.010293    0.000397
    4   -1   -1    2    3    0.000162    0.000043
    4   -1   -1    3    3   -0.000430   -0.000015
    4   -1   -1    4    3    0.000132   -0.000029
    4   -1   -1    5    3    0.000460   -0.000002
    4   -1   -1    6    3    0.000314    0.000013
    4   -1   -1    7    3    0.009630   -0.000830
    4   -1   -1    8    3    0.000129   -0.000036
    4   -1   -1    9    3   -0.001019    0.000068
    4   -1   -1   10    3    0.000000   -0.000051
    4   -1   -1   11    3    0.001104   -0.000013
    4   -1   -1   12    3   -0.000759   -0.000010
    4   -1   -1   13    3   -0.000985    0.000385
    4   -1   -1   14    3   -0.001743   -0.000480
    4   -1   -1   15    3   -0.000567    0.000108
    4   -1   -1   16    3    0.005815   -0.000028
    4   -1   -1   17    3    0.002837    0.000254
    4   -1   -1   18    3    0.000688   -0.000120
    4   -1   -1    1    4    0.010737    0.000218
    4   -1   -1    2    4    0.000198    0.000026
    4   -1   -1    3    4    0.000128   -0.000027
    4   -1   -1    4    4   -0.000552   -0.000032
    4   -1   -1    5    4   -0.000701   -0.000011
    4   -1   -1    6    4    0.000511   -0.000009
    4   -1   -1    7    4    0.010491   -0.000651
    4   -1   -1    8    4    0.000566    0.000035
    4   -1   -1    9    4   -0.000210    0.000038
    4   -1   -1   10    4   -0.001446   -0.000006
    4   -1   -1   11    4   -0.001048    0.000014
    4   -1   -1   12    4   -0.000172    0.000019
    4   -1   -1   13    4   -0.000808   -0.000182
    4   -1   -1   14    4   -0.002421   -0.000222
    4   -1   -1   15    4   -0.000008    0.000530
    4   -1   -1   16    4    0.003197    0.000113
    4   -1   -1   17    4    0.002555    0.000075
    4   -1   -1   18    4    0.003316   -0.000244
    4   -1   -1    1    5   -0.000834   -0.000019
    4   -1   -1    2    5    0.000018   -0.000007
    4   -1   -1    3    5    0.000494   -0.000002
    4   -1   -1    4    5   -0.000527    0.000007
    4   -1   -1    5    5    0.000268    0.000003
    4   -1   -1    6    5    0.000035   -0.000024
    4   -1   -1    7    5   -0.000962    0.000100
    4   -1   -1    8    5    0.000182    0.000014
    4   -1   -1    9    5    0.001116   -0.000012
    4   -1   -1   10    5   -0.001333    0.000004
    4   -1   -1   11    5   -0.000015    0.000000
    4   -1   -1   12    5    0.000188   -0.000006
    4   -1   -1   13    5   -0.000529   -0.000148
    4   -1   -1   14    5    0.001202    0.000052
    4   -1   -1   15    5   -0.000995    0.000131
    4   -1   -1   16    5   -0.001029    0.000114
    4   -1   -1   17    5   -0.003593   -0.000027
    4   -1   -1   18    5    0.003898   -0.000084
    4   -1   -1    1    6    0.026274    0.000055
    4   -1   -1    2    6   -0.000687    0.000013
    4   -1   -1    3    6    0.000487   -0.000008
    4   -1   -1    4    6    0.000524    0.000003
    4   -1   -1    5    6   -0.000172    0.000019
    4   -1   -1    6    6   -0.000633    0.000008
    4   -1   -1    7    6   -0.016606    0.001355
    4   -1   -1    8    6   -0.000875   -0.000003
    4   -1   -1    9    6   -0.000564    0.000012
    4   -1   -1   10    6   -0.000012   -0.000079
    4   -1   -1   11    6    0.000139   -0.000079
    4   -1   -1   12    6   -0.001259   -0.000020
    4   -1   -1   13    6   -0.000987    0.000117
    4   -1   -1   14    6    0.000384    0.000279
    4   -1   -1   15    6    0.002016   -0.000447
    4   -1   -1   16    6   -0.000247   -0.000147
    4   -1   -1   17    6    0.000130   -0.000127
    4   -1   -1   18    6    0.004388    0.000219
    4   -1   -1    1    7   -0.031552    0.000459
    4   -1   -1    2    7   -0.002577    0.000072
    4   -1   -1    3    7    0.004785   -0.000327
    4   -1   -1    4    7   -0.000361    0.000881
    4   -1   -1    5    7    0.000093   -0.000117
    4   -1   -1    6    7   -0.017511   -0.000514
    4   -1   -1    7    7    0.051363    0.000163
    4   -1   -1    8    7    0.003114    0.000036
    4   -1   -1    9    7    0.010045   -0.000214
    4   -1   -1   10    7    0.012133    0.000096
    4   -1   -1   11    7    0.000187    0.000156
    4   -1   -1   12    7    0.022655    0.000109
    4   -1   -1   13    7   -0.020676   -0.000068
    4   -1   -1   14    7    0.001409   -0.000569
    4   -1   -1   15    7    0.015530    0.000678
    4   -1   -1   16    7    0.008803    0.000041
    4   -1   -1   17    7   -0.037862   -0.000413
    4   -1   -1   18    7   -0.022956    0.000308
    4   -1   -1    1    8   -0.003136    0.000105
    4   -1   -1    2    8   -0.000468    0.000014
    4   -1   -1    3    8   -0.000022    0.000050
    4   -1   -1    4    8    0.000224   -0.000090
    4   -1   -1    5    8    0.000060   -0.000015
    4   -1   -1    6    8   -0.000338    0.000040
    4   -1   -1    7    8    0.005282   -0.000023
    4   -1   -1    8    8   -0.000191    0.000001
    4   -1   -1    9    8    0.000164    0.000003
    4   -1   -1   10    8    0.000263   -0.000003
    4   -1   -1   11    8    0.000021   -0.000016
    4   -1   -1   12    8   -0.000569   -0.000016
    4   -1   -1   13    8    0.001029   -0.000060
    4   -1   -1   14    8   -0.000604    0.000219
    4   -1   -1   15    8   -0.000951   -0.000128
    4   -1   -1   16    8    0.001534   -0.000145
    4   -1   -1   17    8   -0.000694    0.000126
    4   -1   -1   18    8   -0.000391    0.000017
    4   -1   -1    1    9    0.001152    0.000983
    4   -1   -1    2    9   -0.000145    0.000072
    4   -1   -1    3    9    0.000519   -0.000081
    4   -1   -1    4    9    0.000774   -0.000043
    4   -1   -1    5    9    0.000633    0.000000
    4   -1   -1    6    9   -0.000173   -0.000039
    4   -1   -1    7    9    0.014761    0.000115
    4   -1   -1    8    9    0.000367   -0.000022
    4   -1   -1    9    9   -0.000127   -0.000032
    4   -1   -1   10    9   -0.000075    0.000043
    4   -1   -1   11    9    0.000342    0.000009
    4   -1   -1   12    9    0.000540   -0.000021
    4   -1   -1   13    9   -0.000853    0.000453
    4   -1   -1   14    9   -0.000694   -0.000174
    4   -1   -1   15    9    0.001771   -0.000192
    4   -1   -1   16    9    0.000263    0.000333
    4   -1   -1   17    9   -0.001596   -0.000354
    4   -1   -1   18    9   -0.000985    0.000126
    4   -1   -1    1   10    0.003981   -0.001024
    4   -1   -1    2   10   -0.000242   -0.000016
    4   -1   -1    3   10    0.000938    0.000029
    4   -1   -1    4   10    0.000315    0.000014
    4   -1   -1    5   10   -0.000529   -0.000009
    4   -1   -1    6   10    0.000106    0.000113
    4   -1   -1    7   10    0.009920   -0.000089
    4   -1   -1    8   10    0.000473    0.000021
    4   -1   -1    9   10   -0.000108    0.000049
    4   -1   -1   10   10   -0.000502   -0.000066
    4   -1   -1   11   10   -0.000452   -0.000031
    4   -1   -1   12   10    0.000903    0.000001
    4   -1   -1   13   10    0.000114   -0.000328
    4   -1   -1   14   10    0.000898    0.000172
    4   -1   -1   15   10   -0.001077    0.000120
    4   -1   -1   16   10   -0.000491   -0.000403
    4   -1   -1   17   10    0.000695    0.000288
    4   -1   -1   18   10   -0.002967    0.000023
    4   -1   -1    1   11    0.002561   -0.000145
    4   -1   -1    2   11    0.000017    0.000017
    4   -1   -1    3   11    0.000565    0.000006
    4   -1   -1    4   11   -0.000501   -0.000053
    4   -1   -1    5   11   -0.000540   -0.000007
    4   -1   -1    6   11    0.000141    0.000148
    4   -1   -1    7   11   -0.000163   -0.000141
    4   -1   -1    8   11   -0.000002    0.000027
    4   -1   -1    9   11    0.000297    0.000020
    4   -1   -1   10   11   -0.000387   -0.000040
    4   -1   -1   11   11   -0.000111   -0.000001
    4   -1   -1   12   11    0.000102    0.000020
    4   -1   -1   13   11    0.000182   -0.000386
    4   -1   -1   14   11    0.001959    0.000228
    4   -1   -1   15   11   -0.002298    0.000200
    4   -1   -1   16   11   -0.000082   -0.000248
    4   -1   -1   17   11    0.000822    0.000252
    4   -1   -1   18   11   -0.000585   -0.000056
    4   -1   -1    1   12   -0.017499    0.000106
    4   -1   -1    2   12    0.000077    0.000020
    4   -1   -1    3   12   -0.000471    0.000035
    4   -1   -1    4   12    0.000059   -0.000091
    4   -1   -1    5   12    0.000225   -0.000026
    4   -1   -1    6   12    0.001013    0.000049
    4   -1   -1    7   12    0.028356   -0.000049
    4   -1   -1    8   12   -0.000747    0.000014
    4   -1   -1    9   12    0.000338   -0.000011
    4   -1   -1   10   12    0.000607    0.000025
    4   -1   -1   11   12    0.000002    0.000037
    4   -1   -1   12   12   -0.000851    0.000000
    4   -1   -1   13   12   -0.001539   -0.000185
    4   -1   -1   14   12    0.000305    0.000138
    4   -1   -1   15   12   -0.001100    0.000104
    4   -1   -1   16   12   -0.004882   -0.000128
    4   -1   -1   17   12    0.003193    0.000147
    4   -1   -1   18   12    0.003258   -0.000066
    4   -1   -1    1   13    0.032749    0.000607
    4   -1   -1    2   13    0.000036    0.000076
    4   -1   -1    3   13   -0.000899   -0.000333
    4   -1   -1    4   13   -0.001165    0.000233
    4   -1   -1    5   13   -0.000497    0.000084
    4   -1   -1    6   13    0.001223   -0.000061
    4   -1   -1    7   13   -0.014317   -0.000343
    4   -1   -1    8   13   -0.001686    0.000056
    4   -1   -1    9   13   -0.000486   -0.000397
    4   -1   -1   10   13    0.000657    0.000463
    4   -1   -1   11   13    0.000358    0.000351
    4   -1   -1   12   13   -0.002419    0.000024
    4   -1   -1   13   13   -0.002392   -0.000539
    4   -1   -1   14   13    0.007390   -0.000408
    4   -1   -1   15   13    0.009710    0.000886
    4   -1   -1   16   13   -0.054189   -0.000633
    4   -1   -1   17   13    0.002987   -0.000565
    4   -1   -1   18   13    0.016198    0.000788
    4   -1   -1    1   14   -0.013304   -0.000256
    4   -1   -1    2   14    0.000042   -0.000304
    4   -1   -1    3   14    0.000434    0.000333
    4   -1   -1    4   14    0.000121    0.000281
    4   -1   -1    5   14   -0.001173    0.000006
    4   -1   -1    6   14    0.000183   -0.000349
    4   -1   -1    7   14    0.001525    0.001127
    4   -1   -1    8   14    0.001084   -0.000039
    4   -1   -1    9   14    0.002972    0.000250
    4   -1   -1   10   14   -0.000590   -0.000368
    4   -1   -1   11   14   -0.001243   -0.000243
    4   -1   -1   12   14    0.001155   -0.000027
    4   -1   -1   13   14    0.005980    0.000682
    4   -1   -1   14   14   -0.013282   -0.000250
    4   -1   -1   15   14    0.014771   -0.000858
    4   -1   -1   16   14    0.015189   -0.000388
    4   -1   -1   17   14   -0.018105    0.000358
    4   -1   -1   18   14   -0.024184    0.000068
    4   -1   -1    1   15   -0.017140   -0.000289
    4   -1   -1    2   15    0.000734    0.000227
    4   -1   -1    3   15    0.000236   -0.000045
    4   -1   -1    4   15    0.001261   -0.000628
    4   -1   -1    5   15    0.002029   -0.000099
    4   -1   -1    6   15    0.001714    0.000491
    4   -1   -1    7   15    0.026490   -0.000834
    4   -1   -1    8   15   -0.000674   -0.000038
    4   -1   -1    9   15    0.000368    0.000013
    4   -1   -1   10   15    0.003141    0.000044
    4   -1   -1   11   15    0.000868   -0.000058
    4   -1   -1   12   15   -0.000925   -0.000037
    4   -1   -1   13   15    0.006810   -0.000514
    4   -1   -1   14   15    0.014482    0.001200
    4   -1   -1   15   15   -0.018926   -0.000261
    4   -1   -1   16   15    0.024217    0.000459
    4   -1   -1   17   15   -0.030365   -0.000062
    4   -1   -1   18   15   -0.028783   -0.000095
    4   -1   -1    1   16   -0.158145    0.001969
    4   -1   -1    2   16   -0.012209    0.000292
    4   -1   -1    3   16   -0.035017   -0.000165
    4   -1   -1    4   16   -0.036292   -0.000614
    4   -1   -1    5   16   -0.000131   -0.000162
    4   -1   -1    6   16   -0.020929    0.000130
    4   -1   -1    7   16    0.030693   -0.001623
    4   -1   -1    8   16    0.000168    0.000089
    4   -1   -1    9   16   -0.000054   -0.000328
    4   -1   -1   10   16   -0.000612    0.000293
    4   -1   -1   11   16    0.000037    0.000267
    4   -1   -1   12   16    0.000614    0.000124
    4   -1   -1   13   16    0.006400    0.000440
    4   -1   -1   14   16    0.013008    0.000477
    4   -1   -1   15   16    0.016644   -0.000228
    4   -1   -1   16   16   -0.005212   -0.000674
    4   -1   -1   17   16    0.011795    0.000805
    4   -1   -1   18   16    0.008569   -0.000615
    4   -1   -1    1   17   -0.162374    0.000141
    4   -1   -1    2   17    0.005656    0.000181
    4   -1   -1    3   17   -0.035300   -0.000360
    4   -1   -1    4   17   -0.021979   -0.000105
    4   -1   -1    5   17   -0.006331    0.000081
    4   -1   -1    6   17   -0.042843    0.000255
    4   -1   -1    7   17   -0.013061    0.000499
    4   -1   -1    8   17   -0.000035   -0.000163
    4   -1   -1    9   17    0.001721    0.000195
    4   -1   -1   10   17   -0.000730   -0.000156
    4   -1   -1   11   17   -0.001934   -0.000183
    4   -1   -1   12   17    0.001202   -0.000122
    4   -1   -1   13   17    0.007835    0.000451
    4   -1   -1   14   17    0.019020   -0.000490
    4   -1   -1   15   17   -0.007815    0.000200
    4   -1   -1   16   17    0.009619   -0.000186
    4   -1   -1   17   17   -0.022002   -0.000317
    4   -1   -1   18   17    0.018166    0.000916
    4   -1   -1    1   18   -0.142776   -0.000995
    4   -1   -1    2   18    0.006450   -0.000498
    4   -1   -1    3   18   -0.023275    0.000296
    4   -1   -1    4   18   -0.034112    0.000778
    4   -1   -1    5   18    0.007289    0.000136
    4   -1   -1    6   18   -0.038020   -0.000545
    4   -1   -1    7   18   -0.012685    0.000924
    4   -1   -1    8   18    0.000496    0.000079
    4   -1   -1    9   18   -0.000857    0.000040
    4   -1   -1   10   18    0.001268   -0.000064
    4   -1   -1   11   18    0.001781   -0.000017
    4   -1   -1   12   18    0.001875    0.000057
    4   -1   -1   13   18    0.011989   -0.000490
    4   -1   -1   14   18   -0.003276   -0.000307
    4   -1   -1   15   18    0.016427    0.000040
    4   -1   -1   16   18    0.009220    0.001293
    4   -1   -1   17   18    0.015973   -0.000903
    4   -1   -1   18   18   -0.021988   -0.000366
