
             +---------------------------------------------------+
             |                                                   |
             |                   WANNIER90                       |
             |                                                   |
             +---------------------------------------------------+
             |                                                   |
             |        Welcome to the Maximally-Localized         |
             |        Generalized Wannier Functions code         |
             |            http://www.wannier.org                 |
             |                                                   |
             |                                                   |
             |  Wannier90 Developer Group:                       |
             |    Giovanni Pizzi    (EPFL)                       |
             |    Valerio Vitale    (Cambridge)                  |
             |    David Vanderbilt  (Rutgers University)         |
             |    Nicola Marzari    (EPFL)                       |
             |    Ivo Souza         (Universidad del Pais Vasco) |
             |    Arash A. Mostofi  (Imperial College London)    |
             |    Jonathan R. Yates (University of Oxford)       |
             |                                                   |
             |  For the full list of Wannier90 3.x authors,      |
             |  please check the code documentation and the      |
             |  README on the GitHub page of the code            |
             |                                                   |
             |                                                   |
             |  Please cite                                      |
             |                                                   |
             |  [ref] "An updated version of Wannier90:          |
             |        A Tool for Obtaining Maximally Localised   |
             |        Wannier Functions", A. A. Mostofi,         |
             |        J. R. Yates, G. Pizzi, Y. S. Lee,          |
             |        I. Souza, D. Vanderbilt and N. Marzari,    |
             |        Comput. Phys. Commun. 185, 2309 (2014)     |
             |        http://dx.doi.org/10.1016/j.cpc.2014.05.003|
             |                                                   |
             |  in any publications arising from the use of      |
             |  this code. For the method please cite            |
             |                                                   |
             |  [ref] "Maximally Localized Generalised Wannier   |
             |         Functions for Composite Energy Bands"     |
             |         N. Marzari and D. Vanderbilt              |
             |         Phys. Rev. B 56 12847 (1997)              |
             |                                                   |
             |  [ref] "Maximally Localized Wannier Functions     |
             |         for Entangled Energy Bands"               |
             |         I. Souza, N. Marzari and D. Vanderbilt    |
             |         Phys. Rev. B 65 035109 (2001)             |
             |                                                   |
             |                                                   |
             | Copyright (c) 1996-2019                           |
             |        The Wannier90 Developer Group and          |
             |        individual contributors                    |
             |                                                   |
             |      Release: 3.0.0       27th February 2019      |
             |                                                   |
             | This program is free software; you can            |
             | redistribute it and/or modify it under the terms  |
             | of the GNU General Public License as published by |
             | the Free Software Foundation; either version 2 of |
             | the License, or (at your option) any later version|
             |                                                   |
             | This program is distributed in the hope that it   |
             | will be useful, but WITHOUT ANY WARRANTY; without |
             | even the implied warranty of MERCHANTABILITY or   |
             | FITNESS FOR A PARTICULAR PURPOSE. See the GNU     |
             | General Public License for more details.          |
             |                                                   |
             | You should have received a copy of the GNU General|
             | Public License along with this program; if not,   |
             | write to the Free Software Foundation, Inc.,      |
             | 675 Mass Ave, Cambridge, MA 02139, USA.           |
             |                                                   |
             +---------------------------------------------------+
             |    Execution started on  2Jun2020 at 23:41:18     |
             +---------------------------------------------------+
 
 ******************************************************************************
 * -> Using CODATA 2006 constant values                                       *
 *    (http://physics.nist.gov/cuu/Constants/index.html)                      *
 * -> Using Bohr value from CODATA                                            *
 ******************************************************************************
 

 Running in serial (with serial executable)

                                    ------
                                    SYSTEM
                                    ------

                              Lattice Vectors (Ang)
                    a_1     4.177002   2.088501   2.088501
                    a_2     2.088501   4.177002   2.088501
                    a_3     2.088501   2.088501   4.177002

                   Unit Cell Volume:      36.43879  (Ang^3)

                        Reciprocal-Space Vectors (Ang^-1)
                    b_1     2.256350  -0.752117  -0.752117
                    b_2    -0.752117   2.256350  -0.752117
                    b_3    -0.752117  -0.752117   2.256350
  
 *----------------------------------------------------------------------------*
 |   Site       Fractional Coordinate          Cartesian Coordinate (Ang)     |
 +----------------------------------------------------------------------------+
 | Ni   1   0.00000   0.00000   0.00000   |    0.00000   0.00000   0.00000    |
 | Ni   1   0.50000   0.50000   0.50000   |    4.17700   4.17700   4.17700    |
 | O    1   0.25000   0.25000   0.25000   |    2.08850   2.08850   2.08850    |
 | O    2   0.75000   0.75000   0.75000   |    6.26550   6.26550   6.26550    |
 *----------------------------------------------------------------------------*
                                ------------
                                K-POINT GRID
                                ------------
  
             Grid size =  5 x  5 x  5      Total points =  125
  
  
 *---------------------------------- MAIN ------------------------------------*
 |  Number of Wannier Functions               :                18             |
 |  Number of Objective Wannier Functions     :                18             |
 |  Number of input Bloch states              :                50             |
 |  Output verbosity (1=low, 5=high)          :                 1             |
 |  Timing Level (1=low, 5=high)              :                 1             |
 |  Optimisation (0=memory, 3=speed)          :                 3             |
 |  Length Unit                               :               Ang             |
 |  Post-processing setup (write *.nnkp)      :                 F             |
 |  Using Gamma-only branch of algorithms     :                 F             |
 *----------------------------------------------------------------------------*
 *------------------------------- WANNIERISE ---------------------------------*
 |  Total number of iterations                :               100             |
 |  Number of CG steps before reset           :                 5             |
 |  Trial step length for line search         :             2.000             |
 |  Convergence tolerence                     :         0.100E-09             |
 |  Convergence window                        :                -1             |
 |  Iterations between writing output         :                 1             |
 |  Iterations between backing up to disk     :               100             |
 |  Write r^2_nm to file                      :                 F             |
 |  Write xyz WF centres to file              :                 F             |
 |  Write on-site energies <0n|H|0n> to file  :                 F             |
 |  Use guiding centre to control phases      :                 F             |
 |  Use phases for initial projections        :                 F             |
 *----------------------------------------------------------------------------*
 *------------------------------- DISENTANGLE --------------------------------*
 |  Using band disentanglement                :                 T             |
 |  Total number of iterations                :               200             |
 |  Mixing ratio                              :             0.500             |
 |  Convergence tolerence                     :         1.000E-10             |
 |  Convergence window                        :                 3             |
 *----------------------------------------------------------------------------*
 Time to read parameters        0.024 (sec)

 *---------------------------------- K-MESH ----------------------------------*
 +----------------------------------------------------------------------------+
 |                    Distance to Nearest-Neighbour Shells                    |
 |                    ------------------------------------                    |
 |          Shell             Distance (Ang^-1)          Multiplicity         |
 |          -----             -----------------          ------------         |
 |             1                   0.260541                      2            |
 |             2                   0.498898                      6            |
 |             3                   0.521082                      8            |
 |             4                   0.601693                      6            |
 |             5                   0.655680                      6            |
 |             6                   0.781623                      8            |
 |             7                   0.850923                     12            |
 |             8                   0.889916                     12            |
 |             9                   0.986392                      6            |
 |            10                   0.997796                     24            |
 |            11                   1.042163                      8            |
 |            12                   1.074237                     12            |
 |            13                   1.155424                     18            |
 |            14                   1.203387                      6            |
 |            15                   1.231268                      6            |
 |            16                   1.302704                     14            |
 |            17                   1.311360                     24            |
 |            18                   1.345427                     24            |
 |            19                   1.370422                     18            |
 |            20                   1.434947                     12            |
 |            21                   1.473842                     24            |
 |            22                   1.496693                     18            |
 |            23                   1.555991                     18            |
 |            24                   1.563245                     32            |
 |            25                   1.613111                     12            |
 |            26                   1.668276                     12            |
 |            27                   1.701846                     12            |
 |            28                   1.721674                     30            |
 |            29                   1.773465                     18            |
 |            30                   1.779833                     48            |
 |            31                   1.805080                     30            |
 |            32                   1.823786                     14            |
 |            33                   1.872755                     24            |
 |            34                   1.902721                     24            |
 |            35                   1.920477                      6            |
 |            36                   1.967040                     30            |
 +----------------------------------------------------------------------------+
 | The b-vectors are chosen automatically                                     |
 | The following shells are used:   1,  2                                     |
 +----------------------------------------------------------------------------+
 |                        Shell   # Nearest-Neighbours                        |
 |                        -----   --------------------                        |
 |                          1               2                                 |
 |                          2               6                                 |
 +----------------------------------------------------------------------------+
 | Completeness relation is fully satisfied [Eq. (B1), PRB 56, 12847 (1997)]  |
 +----------------------------------------------------------------------------+
 |                  b_k Vectors (Ang^-1) and Weights (Ang^2)                  |
 |                  ----------------------------------------                  |
 |            No.         b_k(x)      b_k(y)      b_k(z)        w_b           |
 |            ---        --------------------------------     --------        |
 |             1         0.150423    0.150423    0.150423     6.905412        |
 |             2        -0.150423   -0.150423   -0.150423     6.905412        |
 |             3         0.451270   -0.150423   -0.150423     1.381082        |
 |             4        -0.150423    0.451270   -0.150423     1.381082        |
 |             5        -0.150423   -0.150423    0.451270     1.381082        |
 |             6         0.150423    0.150423   -0.451270     1.381082        |
 |             7         0.150423   -0.451270    0.150423     1.381082        |
 |             8        -0.451270    0.150423    0.150423     1.381082        |
 +----------------------------------------------------------------------------+
 |                           b_k Directions (Ang^-1)                          |
 |                           -----------------------                          |
 |            No.           x           y           z                         |
 |            ---        --------------------------------                     |
 |             1         0.150423    0.150423    0.150423                     |
 |             2         0.451270   -0.150423   -0.150423                     |
 |             3        -0.150423    0.451270   -0.150423                     |
 |             4        -0.150423   -0.150423    0.451270                     |
 +----------------------------------------------------------------------------+
  
 Time to get kmesh              1.249 (sec)
 *============================================================================*
 |                              MEMORY ESTIMATE                               |
 |         Maximum RAM allocated during each phase of the calculation         |
 *============================================================================*
 |                        Disentanglement           52.04 Mb                  |
 |                            Wannierise:           14.90 Mb                  |
 |                          plot_wannier:           14.90 Mb                  |
 *----------------------------------------------------------------------------*
  
 Starting a new Wannier90 calculation ...


 Reading overlaps from wanup.mmn    :  Created on 19Jun2019 at 12:25:22

 Reading projections from wanup.amn :  Created on 19Jun2019 at 12:25:14

 Time to read overlaps          4.494 (sec)

 *------------------------------- DISENTANGLE --------------------------------*
 +----------------------------------------------------------------------------+
 |                              Energy  Windows                               |
 |                              ---------------                               |
 |                   Outer:   -3.32697  to   26.11160  (eV)                   |
 |                   Inner:    1.67303  to   21.11160  (eV)                   |
 +----------------------------------------------------------------------------+
   Number of target bands to extract:   18

                   Unitarised projection of Wannier functions                  
                   ------------------------------------------                  
   A_mn = <psi_m|g_n> --> S = A.A^+ --> U = S^-1/2.A
   In dis_project... done
   Using an inner window (linner = T)
   In dis_proj_froz... done

                   Extraction of optimally-connected subspace                  
                   ------------------------------------------                  
 +---------------------------------------------------------------------+<-- DIS
 |  Iter     Omega_I(i-1)      Omega_I(i)      Delta (frac.)    Time   |<-- DIS
 +---------------------------------------------------------------------+<-- DIS
       1      14.56670401      14.56670401      -3.331E-16      0.00    <-- DIS
       2      14.56670401      14.56670401      -3.331E-16      0.05    <-- DIS
       3      14.56670401      14.56670401      -3.331E-16      0.10    <-- DIS

             <<<      Delta < 1.000E-10  over  3 iterations     >>>
             <<< Disentanglement convergence criteria satisfied >>>

        Final Omega_I    14.56670401 (Ang^2)

 +----------------------------------------------------------------------------+

 Time to disentangle bands      0.354 (sec)

 Writing checkpoint file wanup.chk... done


 *------------------------------- WANNIERISE ---------------------------------*
 +--------------------------------------------------------------------+<-- CONV
 | Iter  Delta Spread     RMS Gradient      Spread (Ang^2)      Time  |<-- CONV
 +--------------------------------------------------------------------+<-- CONV

 ------------------------------------------------------------------------------
 Initial State
  WF centre and spread    1  (  0.249623, -0.035079,  0.087498 )     9.64489606
  WF centre and spread    2  (  0.000014, -0.000009, -0.000062 )     0.36247843
  WF centre and spread    3  ( -0.000009,  0.000001,  0.000006 )     0.36951704
  WF centre and spread    4  (  0.000005, -0.000001,  0.000003 )     0.36951650
  WF centre and spread    5  ( -0.000012, -0.000022,  0.000008 )     0.36185905
  WF centre and spread    6  ( -0.000002,  0.000003,  0.000000 )     0.36953631
  WF centre and spread    7  (  4.280292,  4.217838,  4.202928 )     8.04775743
  WF centre and spread    8  (  4.177002,  4.176989,  4.176964 )     0.39809815
  WF centre and spread    9  (  4.176990,  4.177004,  4.177007 )     0.34946010
  WF centre and spread   10  (  4.177008,  4.177000,  4.177005 )     0.34945881
  WF centre and spread   11  (  4.176998,  4.176989,  4.177004 )     0.39792304
  WF centre and spread   12  (  4.176990,  4.177003,  4.177002 )     0.34943778
  WF centre and spread   13  (  2.092948,  2.093062,  2.097796 )     1.24384644
  WF centre and spread   14  (  2.100861,  2.090950,  2.090988 )     1.26073277
  WF centre and spread   15  (  2.092320,  2.098642,  2.092446 )     1.26180154
  WF centre and spread   16  (  6.269952,  6.270068,  6.261495 )     1.24170638
  WF centre and spread   17  (  6.264907,  6.267836,  6.267925 )     1.25802503
  WF centre and spread   18  (  6.269206,  6.262712,  6.269368 )     1.25947105
  Sum of centres and spreads ( 50.505092, 50.150986, 50.255380 )    28.89552192

      0     0.289E+02     0.0000000000       28.8955219205       0.33  <-- CONV
        O_D=      4.7220470 O_OD=      9.6067709 O_TOT=     28.8955219 <-- SPRD
 ------------------------------------------------------------------------------
 Cycle:      1
  WF centre and spread    1  (  0.279252,  0.003223,  0.126806 )     9.13067310
  WF centre and spread    2  (  0.000017, -0.000008,  0.000011 )     0.36254349
  WF centre and spread    3  ( -0.000043, -0.000006, -0.000054 )     0.36954032
  WF centre and spread    4  (  0.000005, -0.000038, -0.000014 )     0.36957533
  WF centre and spread    5  (  0.000049,  0.000019, -0.000007 )     0.36183536
  WF centre and spread    6  ( -0.000026, -0.000043, -0.000001 )     0.36955105
  WF centre and spread    7  (  4.292277,  4.229682,  4.223124 )     7.48128527
  WF centre and spread    8  (  4.177004,  4.176964,  4.176889 )     0.39791869
  WF centre and spread    9  (  4.177036,  4.177019,  4.177041 )     0.34940087
  WF centre and spread   10  (  4.177013,  4.177018,  4.177035 )     0.34940593
  WF centre and spread   11  (  4.176949,  4.176939,  4.177019 )     0.39773251
  WF centre and spread   12  (  4.177037,  4.177029,  4.177016 )     0.34938010
  WF centre and spread   13  (  2.092945,  2.093088,  2.097717 )     1.24754283
  WF centre and spread   14  (  2.100896,  2.090881,  2.090875 )     1.25928165
  WF centre and spread   15  (  2.092361,  2.098284,  2.092484 )     1.26535498
  WF centre and spread   16  (  6.269913,  6.269973,  6.261688 )     1.24241304
  WF centre and spread   17  (  6.265161,  6.267834,  6.267914 )     1.26813381
  WF centre and spread   18  (  6.269013,  6.262594,  6.269205 )     1.26642455
  Sum of centres and spreads ( 50.546857, 50.200453, 50.314747 )    27.83799288

      1    -0.106E+01     4.3171549074       27.8379928785       0.44  <-- CONV
        O_D=      3.6030391 O_OD=      9.6682498 O_TOT=     27.8379929 <-- SPRD
 Delta: O_D= -0.1119008E+01 O_OD=  0.6147885E-01 O_TOT= -0.1057529E+01 <-- DLTA
 ------------------------------------------------------------------------------
 Cycle:      2
  WF centre and spread    1  (  0.232718,  0.030920,  0.113869 )     8.63247143
  WF centre and spread    2  (  0.000037, -0.000006,  0.000108 )     0.36374709
  WF centre and spread    3  ( -0.000091, -0.000021, -0.000140 )     0.36991258
  WF centre and spread    4  (  0.000011, -0.000086, -0.000028 )     0.37009381
  WF centre and spread    5  (  0.000129,  0.000050, -0.000021 )     0.36269635
  WF centre and spread    6  ( -0.000066, -0.000071,  0.000004 )     0.36983499
  WF centre and spread    7  (  4.279888,  4.231198,  4.218609 )     7.17377852
  WF centre and spread    8  (  4.177017,  4.176911,  4.176794 )     0.39787004
  WF centre and spread    9  (  4.177106,  4.177042,  4.177095 )     0.34956498
  WF centre and spread   10  (  4.177011,  4.177024,  4.177058 )     0.34973557
  WF centre and spread   11  (  4.176886,  4.176871,  4.177039 )     0.39785023
  WF centre and spread   12  (  4.177107,  4.177080,  4.177040 )     0.34942613
  WF centre and spread   13  (  2.092964,  2.093179,  2.097805 )     1.26189695
  WF centre and spread   14  (  2.101045,  2.090219,  2.090084 )     1.25923955
  WF centre and spread   15  (  2.092101,  2.097519,  2.092284 )     1.27676994
  WF centre and spread   16  (  6.269882,  6.270007,  6.261443 )     1.25178648
  WF centre and spread   17  (  6.265871,  6.267988,  6.267880 )     1.28797825
  WF centre and spread   18  (  6.268890,  6.261894,  6.269069 )     1.27803885
  Sum of centres and spreads ( 50.488505, 50.227716, 50.295992 )    27.10269174

      2    -0.735E+00     2.3594912586       27.1026917421       0.55  <-- CONV
        O_D=      2.7464528 O_OD=      9.7895350 O_TOT=     27.1026917 <-- SPRD
 Delta: O_D= -0.8565863E+00 O_OD=  0.1212852E+00 O_TOT= -0.7353011E+00 <-- DLTA
 ------------------------------------------------------------------------------
 Cycle:      3
  WF centre and spread    1  (  0.254648,  0.031139,  0.079967 )     8.33599125
  WF centre and spread    2  (  0.000054, -0.000001,  0.000156 )     0.36453294
  WF centre and spread    3  ( -0.000099, -0.000030, -0.000196 )     0.37024120
  WF centre and spread    4  (  0.000009, -0.000110, -0.000030 )     0.37048959
  WF centre and spread    5  (  0.000169,  0.000063, -0.000027 )     0.36320979
  WF centre and spread    6  ( -0.000071, -0.000082,  0.000011 )     0.37009077
  WF centre and spread    7  (  4.281905,  4.227987,  4.206588 )     7.10058332
  WF centre and spread    8  (  4.177023,  4.176884,  4.176751 )     0.39789366
  WF centre and spread    9  (  4.177156,  4.177054,  4.177122 )     0.34976706
  WF centre and spread   10  (  4.177003,  4.177020,  4.177072 )     0.35009484
  WF centre and spread   11  (  4.176855,  4.176836,  4.177050 )     0.39802539
  WF centre and spread   12  (  4.177153,  4.177106,  4.177053 )     0.34953188
  WF centre and spread   13  (  2.093018,  2.093245,  2.097904 )     1.27046793
  WF centre and spread   14  (  2.101430,  2.089973,  2.089795 )     1.26097406
  WF centre and spread   15  (  2.092001,  2.097134,  2.092240 )     1.28548511
  WF centre and spread   16  (  6.269886,  6.270031,  6.261282 )     1.26065738
  WF centre and spread   17  (  6.266564,  6.268195,  6.268003 )     1.30021617
  WF centre and spread   18  (  6.268828,  6.261465,  6.268975 )     1.28437329
  Sum of centres and spreads ( 50.513533, 50.223907, 50.249716 )    26.78262562

      3    -0.320E+00     2.6154014452       26.7826256168       0.65  <-- CONV
        O_D=      2.3463927 O_OD=      9.8695290 O_TOT=     26.7826256 <-- SPRD
 Delta: O_D= -0.4000601E+00 O_OD=  0.7999398E-01 O_TOT= -0.3200661E+00 <-- DLTA
 ------------------------------------------------------------------------------
 Cycle:      4
  WF centre and spread    1  (  0.247262,  0.011798,  0.092599 )     8.14011440
  WF centre and spread    2  (  0.000075,  0.000003,  0.000198 )     0.36496095
  WF centre and spread    3  ( -0.000112, -0.000035, -0.000247 )     0.37051982
  WF centre and spread    4  (  0.000005, -0.000149, -0.000016 )     0.37077511
  WF centre and spread    5  (  0.000211,  0.000076, -0.000032 )     0.36338706
  WF centre and spread    6  ( -0.000065, -0.000084,  0.000023 )     0.37032474
  WF centre and spread    7  (  4.289984,  4.218473,  4.190332 )     7.03107577
  WF centre and spread    8  (  4.177029,  4.176857,  4.176714 )     0.39773997
  WF centre and spread    9  (  4.177214,  4.177069,  4.177155 )     0.34994031
  WF centre and spread   10  (  4.176994,  4.177008,  4.177100 )     0.35042370
  WF centre and spread   11  (  4.176828,  4.176802,  4.177061 )     0.39799288
  WF centre and spread   12  (  4.177202,  4.177129,  4.177066 )     0.34964163
  WF centre and spread   13  (  2.093161,  2.093374,  2.098226 )     1.27116891
  WF centre and spread   14  (  2.101921,  2.089806,  2.089631 )     1.25815150
  WF centre and spread   15  (  2.091945,  2.096765,  2.092273 )     1.29043542
  WF centre and spread   16  (  6.269928,  6.270093,  6.261177 )     1.26599951
  WF centre and spread   17  (  6.267314,  6.268458,  6.268221 )     1.30569841
  WF centre and spread   18  (  6.268795,  6.260959,  6.268921 )     1.28384690
  Sum of centres and spreads ( 50.515690, 50.194401, 50.246400 )    26.53219701

      4    -0.250E+00     1.8137830619       26.5321970105       0.76  <-- CONV
        O_D=      2.0676708 O_OD=      9.8978222 O_TOT=     26.5321970 <-- SPRD
 Delta: O_D= -0.2787218E+00 O_OD=  0.2829321E-01 O_TOT= -0.2504286E+00 <-- DLTA
 ------------------------------------------------------------------------------
 Cycle:      5
  WF centre and spread    1  (  0.260009,  0.009419,  0.074953 )     7.93103714
  WF centre and spread    2  (  0.000119,  0.000022,  0.000287 )     0.36544606
  WF centre and spread    3  ( -0.000122, -0.000055, -0.000321 )     0.37121424
  WF centre and spread    4  (  0.000007, -0.000191,  0.000065 )     0.37145797
  WF centre and spread    5  (  0.000247,  0.000059, -0.000032 )     0.36363544
  WF centre and spread    6  ( -0.000016, -0.000060,  0.000054 )     0.37094184
  WF centre and spread    7  (  4.295510,  4.216172,  4.221323 )     6.93351387
  WF centre and spread    8  (  4.177050,  4.176812,  4.176683 )     0.39734377
  WF centre and spread    9  (  4.177316,  4.177084,  4.177224 )     0.35051488
  WF centre and spread   10  (  4.176963,  4.176971,  4.177151 )     0.35117585
  WF centre and spread   11  (  4.176775,  4.176741,  4.177081 )     0.39764111
  WF centre and spread   12  (  4.177318,  4.177181,  4.177096 )     0.35008439
  WF centre and spread   13  (  2.093587,  2.093697,  2.099419 )     1.26573526
  WF centre and spread   14  (  2.103239,  2.089839,  2.089795 )     1.24694903
  WF centre and spread   15  (  2.092283,  2.096824,  2.092743 )     1.29214757
  WF centre and spread   16  (  6.270273,  6.270351,  6.261203 )     1.26965186
  WF centre and spread   17  (  6.268987,  6.269343,  6.269166 )     1.30840159
  WF centre and spread   18  (  6.269074,  6.260338,  6.269059 )     1.27491965
  Sum of centres and spreads ( 50.538618, 50.190547, 50.262949 )    26.21181153

      5    -0.320E+00     1.6200339150       26.2118115336       0.87  <-- CONV
        O_D=      1.7584776 O_OD=      9.8866300 O_TOT=     26.2118115 <-- SPRD
 Delta: O_D= -0.3091933E+00 O_OD= -0.1119220E-01 O_TOT= -0.3203855E+00 <-- DLTA
 ------------------------------------------------------------------------------
 Cycle:      6
  WF centre and spread    1  (  0.252028, -0.003303,  0.086714 )     7.79569061
  WF centre and spread    2  (  0.000153,  0.000033,  0.000346 )     0.36597775
  WF centre and spread    3  ( -0.000129, -0.000066, -0.000365 )     0.37192967
  WF centre and spread    4  (  0.000011, -0.000215,  0.000115 )     0.37220927
  WF centre and spread    5  (  0.000274,  0.000055, -0.000032 )     0.36398993
  WF centre and spread    6  (  0.000022, -0.000034,  0.000077 )     0.37163680
  WF centre and spread    7  (  4.302540,  4.216865,  4.223664 )     6.88489412
  WF centre and spread    8  (  4.177066,  4.176785,  4.176664 )     0.39719078
  WF centre and spread    9  (  4.177390,  4.177091,  4.177273 )     0.35119844
  WF centre and spread   10  (  4.176941,  4.176950,  4.177183 )     0.35193156
  WF centre and spread   11  (  4.176741,  4.176701,  4.177093 )     0.39754490
  WF centre and spread   12  (  4.177403,  4.177223,  4.177117 )     0.35067552
  WF centre and spread   13  (  2.093835,  2.093902,  2.100259 )     1.26327692
  WF centre and spread   14  (  2.104118,  2.089830,  2.089849 )     1.24097230
  WF centre and spread   15  (  2.092526,  2.096902,  2.093106 )     1.29605242
  WF centre and spread   16  (  6.270438,  6.270484,  6.261165 )     1.27548159
  WF centre and spread   17  (  6.270154,  6.269917,  6.269790 )     1.31216872
  WF centre and spread   18  (  6.269251,  6.259886,  6.269159 )     1.27058995
  Sum of centres and spreads ( 50.540761, 50.179008, 50.279174 )    26.03341124

      6    -0.178E+00     2.7475434542       26.0334112414       0.97  <-- CONV
        O_D=      1.5621699 O_OD=      9.9045373 O_TOT=     26.0334112 <-- SPRD
 Delta: O_D= -0.1963076E+00 O_OD=  0.1790736E-01 O_TOT= -0.1784003E+00 <-- DLTA
 ------------------------------------------------------------------------------
 Cycle:      7
  WF centre and spread    1  (  0.251796,  0.015168,  0.078227 )     7.76181082
  WF centre and spread    2  (  0.000153,  0.000032,  0.000342 )     0.36572519
  WF centre and spread    3  ( -0.000126, -0.000068, -0.000366 )     0.37185056
  WF centre and spread    4  (  0.000007, -0.000206,  0.000104 )     0.37212947
  WF centre and spread    5  (  0.000274,  0.000055, -0.000031 )     0.36381735
  WF centre and spread    6  (  0.000028, -0.000020,  0.000080 )     0.37157412
  WF centre and spread    7  (  4.302851,  4.237033,  4.196745 )     6.79104114
  WF centre and spread    8  (  4.177067,  4.176787,  4.176666 )     0.39702453
  WF centre and spread    9  (  4.177397,  4.177089,  4.177271 )     0.35113955
  WF centre and spread   10  (  4.176938,  4.176959,  4.177175 )     0.35180206
  WF centre and spread   11  (  4.176741,  4.176702,  4.177092 )     0.39737417
  WF centre and spread   12  (  4.177403,  4.177233,  4.177118 )     0.35064375
  WF centre and spread   13  (  2.093817,  2.093912,  2.100169 )     1.25910128
  WF centre and spread   14  (  2.104227,  2.089866,  2.089860 )     1.23764572
  WF centre and spread   15  (  2.092530,  2.097024,  2.093108 )     1.29312569
  WF centre and spread   16  (  6.270415,  6.270495,  6.261077 )     1.27268309
  WF centre and spread   17  (  6.270217,  6.269927,  6.269752 )     1.30808566
  WF centre and spread   18  (  6.269283,  6.259978,  6.269196 )     1.26594741
  Sum of centres and spreads ( 50.541019, 50.217964, 50.243587 )    25.88252155

      7    -0.151E+00     2.7180443786       25.8825215519       1.08  <-- CONV
        O_D=      1.4555729 O_OD=      9.8602446 O_TOT=     25.8825216 <-- SPRD
 Delta: O_D= -0.1065970E+00 O_OD= -0.4429267E-01 O_TOT= -0.1508897E+00 <-- DLTA
 ------------------------------------------------------------------------------
 Cycle:      8
  WF centre and spread    1  (  0.239918,  0.044649,  0.083084 )     7.71878467
  WF centre and spread    2  (  0.000153,  0.000027,  0.000329 )     0.36466044
  WF centre and spread    3  ( -0.000118, -0.000068, -0.000346 )     0.37154168
  WF centre and spread    4  ( -0.000002, -0.000194,  0.000087 )     0.37184046
  WF centre and spread    5  (  0.000272,  0.000050, -0.000028 )     0.36307829
  WF centre and spread    6  (  0.000050,  0.000019,  0.000086 )     0.37133578
  WF centre and spread    7  (  4.296000,  4.247234,  4.179453 )     6.74169201
  WF centre and spread    8  (  4.177076,  4.176796,  4.176686 )     0.39632867
  WF centre and spread    9  (  4.177411,  4.177087,  4.177282 )     0.35091318
  WF centre and spread   10  (  4.176933,  4.176964,  4.177174 )     0.35130832
  WF centre and spread   11  (  4.176743,  4.176702,  4.177089 )     0.39663824
  WF centre and spread   12  (  4.177414,  4.177255,  4.177119 )     0.35054444
  WF centre and spread   13  (  2.093776,  2.093944,  2.100103 )     1.24013781
  WF centre and spread   14  (  2.104560,  2.090016,  2.089972 )     1.22115206
  WF centre and spread   15  (  2.092537,  2.097203,  2.093130 )     1.27889577
  WF centre and spread   16  (  6.270313,  6.270477,  6.260937 )     1.25949845
  WF centre and spread   17  (  6.270392,  6.269906,  6.269642 )     1.28916115
  WF centre and spread   18  (  6.269322,  6.260101,  6.269281 )     1.24502090
  Sum of centres and spreads ( 50.522750, 50.258171, 50.231080 )    25.68253232

      8    -0.200E+00     1.4599331523       25.6825323162       1.19  <-- CONV
        O_D=      1.4187445 O_OD=      9.6970838 O_TOT=     25.6825323 <-- SPRD
 Delta: O_D= -0.3682842E-01 O_OD= -0.1631608E+00 O_TOT= -0.1999892E+00 <-- DLTA
 ------------------------------------------------------------------------------
 Cycle:      9
  WF centre and spread    1  (  0.242168,  0.027113,  0.095099 )     7.66145091
  WF centre and spread    2  (  0.000145,  0.000011,  0.000293 )     0.36247216
  WF centre and spread    3  ( -0.000079, -0.000061, -0.000290 )     0.37110271
  WF centre and spread    4  ( -0.000022, -0.000175,  0.000095 )     0.37144335
  WF centre and spread    5  (  0.000245,  0.000007, -0.000017 )     0.36151505
  WF centre and spread    6  (  0.000147,  0.000089,  0.000101 )     0.37102505
  WF centre and spread    7  (  4.314572,  4.225312,  4.178364 )     6.68404377
  WF centre and spread    8  (  4.177102,  4.176821,  4.176756 )     0.39470903
  WF centre and spread    9  (  4.177451,  4.177083,  4.177303 )     0.35065737
  WF centre and spread   10  (  4.176913,  4.176941,  4.177192 )     0.35065473
  WF centre and spread   11  (  4.176750,  4.176703,  4.177076 )     0.39493433
  WF centre and spread   12  (  4.177478,  4.177277,  4.177125 )     0.35055922
  WF centre and spread   13  (  2.093752,  2.093928,  2.100447 )     1.19943615
  WF centre and spread   14  (  2.105592,  2.090557,  2.090590 )     1.18419523
  WF centre and spread   15  (  2.092831,  2.097687,  2.093416 )     1.24754765
  WF centre and spread   16  (  6.270314,  6.270449,  6.260897 )     1.23156850
  WF centre and spread   17  (  6.271158,  6.270079,  6.269770 )     1.24850489
  WF centre and spread   18  (  6.269367,  6.260045,  6.269327 )     1.19872915
  Sum of centres and spreads ( 50.545881, 50.219868, 50.243544 )    25.33454925

      9    -0.348E+00     1.5580053183       25.3345492524       1.29  <-- CONV
        O_D=      1.3918148 O_OD=      9.3760304 O_TOT=     25.3345493 <-- SPRD
 Delta: O_D= -0.2692964E-01 O_OD= -0.3210534E+00 O_TOT= -0.3479831E+00 <-- DLTA
 ------------------------------------------------------------------------------
 Cycle:     10
  WF centre and spread    1  (  0.247834,  0.027678,  0.131333 )     7.62337400
  WF centre and spread    2  (  0.000145,  0.000011,  0.000293 )     0.36243717
  WF centre and spread    3  ( -0.000080, -0.000062, -0.000286 )     0.37110012
  WF centre and spread    4  ( -0.000022, -0.000176,  0.000102 )     0.37143244
  WF centre and spread    5  (  0.000243,  0.000007, -0.000017 )     0.36148964
  WF centre and spread    6  (  0.000151,  0.000091,  0.000101 )     0.37102479
  WF centre and spread    7  (  4.318497,  4.230604,  4.186358 )     6.65779183
  WF centre and spread    8  (  4.177102,  4.176821,  4.176758 )     0.39468103
  WF centre and spread    9  (  4.177453,  4.177083,  4.177307 )     0.35066212
  WF centre and spread   10  (  4.176912,  4.176941,  4.177197 )     0.35065996
  WF centre and spread   11  (  4.176750,  4.176704,  4.177076 )     0.39490107
  WF centre and spread   12  (  4.177481,  4.177278,  4.177125 )     0.35056541
  WF centre and spread   13  (  2.093767,  2.093935,  2.100527 )     1.19885180
  WF centre and spread   14  (  2.105606,  2.090567,  2.090609 )     1.18378432
  WF centre and spread   15  (  2.092855,  2.097747,  2.093435 )     1.24731079
  WF centre and spread   16  (  6.270335,  6.270461,  6.260941 )     1.23121598
  WF centre and spread   17  (  6.271170,  6.270086,  6.269780 )     1.24796280
  WF centre and spread   18  (  6.269367,  6.260045,  6.269319 )     1.19833215
  Sum of centres and spreads ( 50.555565, 50.225821, 50.287958 )    25.26757739

     10    -0.670E-01     3.6186966970       25.2675773941       1.40  <-- CONV
        O_D=      1.3313594 O_OD=      9.3695140 O_TOT=     25.2675774 <-- SPRD
 Delta: O_D= -0.6045541E-01 O_OD= -0.6516451E-02 O_TOT= -0.6697186E-01 <-- DLTA
 ------------------------------------------------------------------------------
 Cycle:     11
  WF centre and spread    1  (  0.272892,  0.040962,  0.127477 )     7.59850517
  WF centre and spread    2  (  0.000143,  0.000010,  0.000289 )     0.36232271
  WF centre and spread    3  ( -0.000070, -0.000065, -0.000290 )     0.37109128
  WF centre and spread    4  ( -0.000025, -0.000164,  0.000109 )     0.37140048
  WF centre and spread    5  (  0.000237,  0.000003, -0.000016 )     0.36140608
  WF centre and spread    6  (  0.000165,  0.000099,  0.000101 )     0.37102455
  WF centre and spread    7  (  4.326357,  4.242097,  4.192840 )     6.59942973
  WF centre and spread    8  (  4.177103,  4.176822,  4.176764 )     0.39458824
  WF centre and spread    9  (  4.177459,  4.177079,  4.177306 )     0.35068154
  WF centre and spread   10  (  4.176909,  4.176942,  4.177200 )     0.35068186
  WF centre and spread   11  (  4.176749,  4.176705,  4.177075 )     0.39479394
  WF centre and spread   12  (  4.177493,  4.177281,  4.177125 )     0.35059105
  WF centre and spread   13  (  2.093799,  2.093930,  2.100625 )     1.19677521
  WF centre and spread   14  (  2.105717,  2.090622,  2.090682 )     1.18212012
  WF centre and spread   15  (  2.092941,  2.097971,  2.093500 )     1.24621637
  WF centre and spread   16  (  6.270385,  6.270480,  6.260929 )     1.22999915
  WF centre and spread   17  (  6.271260,  6.270129,  6.269825 )     1.24616359
  WF centre and spread   18  (  6.269383,  6.260080,  6.269292 )     1.19700663
  Sum of centres and spreads ( 50.588897, 50.250980, 50.290835 )    25.17479770

     11    -0.928E-01     2.0736728597       25.1747976968       1.51  <-- CONV
        O_D=      1.2573209 O_OD=      9.3507728 O_TOT=     25.1747977 <-- SPRD
 Delta: O_D= -0.7403854E-01 O_OD= -0.1874116E-01 O_TOT= -0.9277970E-01 <-- DLTA
 ------------------------------------------------------------------------------
 Cycle:     12
  WF centre and spread    1  (  0.267926,  0.020256,  0.094467 )     7.56146394
  WF centre and spread    2  (  0.000139,  0.000004,  0.000280 )     0.36206350
  WF centre and spread    3  ( -0.000057, -0.000071, -0.000300 )     0.37107959
  WF centre and spread    4  ( -0.000027, -0.000146,  0.000119 )     0.37134848
  WF centre and spread    5  (  0.000223, -0.000010, -0.000015 )     0.36121319
  WF centre and spread    6  (  0.000189,  0.000113,  0.000105 )     0.37103445
  WF centre and spread    7  (  4.323016,  4.247131,  4.186350 )     6.52799285
  WF centre and spread    8  (  4.177108,  4.176824,  4.176780 )     0.39437025
  WF centre and spread    9  (  4.177464,  4.177074,  4.177300 )     0.35074697
  WF centre and spread   10  (  4.176904,  4.176937,  4.177202 )     0.35075318
  WF centre and spread   11  (  4.176749,  4.176704,  4.177071 )     0.39454634
  WF centre and spread   12  (  4.177511,  4.177282,  4.177128 )     0.35067153
  WF centre and spread   13  (  2.093819,  2.093876,  2.100736 )     1.19169811
  WF centre and spread   14  (  2.105850,  2.090722,  2.090826 )     1.17751498
  WF centre and spread   15  (  2.093095,  2.098355,  2.093606 )     1.24314303
  WF centre and spread   16  (  6.270459,  6.270492,  6.260844 )     1.22721320
  WF centre and spread   17  (  6.271351,  6.270179,  6.269891 )     1.24144338
  WF centre and spread   18  (  6.269360,  6.260044,  6.269187 )     1.19356648
  Sum of centres and spreads ( 50.581080, 50.235766, 50.251576 )    25.04186346

     12    -0.133E+00     1.7961256974       25.0418634601       1.62  <-- CONV
        O_D=      1.1599613 O_OD=      9.3151981 O_TOT=     25.0418635 <-- SPRD
 Delta: O_D= -0.9735954E-01 O_OD= -0.3557470E-01 O_TOT= -0.1329342E+00 <-- DLTA
 ------------------------------------------------------------------------------
 Cycle:     13
  WF centre and spread    1  (  0.274842,  0.037794,  0.098418 )     7.52933769
  WF centre and spread    2  (  0.000135, -0.000002,  0.000269 )     0.36171031
  WF centre and spread    3  ( -0.000044, -0.000079, -0.000299 )     0.37106730
  WF centre and spread    4  ( -0.000032, -0.000124,  0.000133 )     0.37131126
  WF centre and spread    5  (  0.000204, -0.000024, -0.000013 )     0.36094722
  WF centre and spread    6  (  0.000219,  0.000141,  0.000107 )     0.37104618
  WF centre and spread    7  (  4.329338,  4.267861,  4.191239 )     6.50377803
  WF centre and spread    8  (  4.177114,  4.176829,  4.176802 )     0.39406338
  WF centre and spread    9  (  4.177471,  4.177065,  4.177301 )     0.35086365
  WF centre and spread   10  (  4.176898,  4.176937,  4.177211 )     0.35086311
  WF centre and spread   11  (  4.176748,  4.176706,  4.177067 )     0.39421931
  WF centre and spread   12  (  4.177537,  4.177293,  4.177130 )     0.35080396
  WF centre and spread   13  (  2.093797,  2.093796,  2.100901 )     1.18487650
  WF centre and spread   14  (  2.105972,  2.090818,  2.090970 )     1.17037606
  WF centre and spread   15  (  2.093253,  2.098858,  2.093725 )     1.23803726
  WF centre and spread   16  (  6.270488,  6.270479,  6.260811 )     1.22318094
  WF centre and spread   17  (  6.271439,  6.270173,  6.269895 )     1.23426042
  WF centre and spread   18  (  6.269265,  6.260049,  6.269027 )     1.18791287
  Sum of centres and spreads ( 50.594643, 50.274570, 50.260692 )    24.94865545

     13    -0.932E-01     1.5908798226       24.9486554524       1.72  <-- CONV
        O_D=      1.1159351 O_OD=      9.2660164 O_TOT=     24.9486555 <-- SPRD
 Delta: O_D= -0.4402627E-01 O_OD= -0.4918173E-01 O_TOT= -0.9320801E-01 <-- DLTA
 ------------------------------------------------------------------------------
 Cycle:     14
  WF centre and spread    1  (  0.263424,  0.038310,  0.095289 )     7.49983746
  WF centre and spread    2  (  0.000130, -0.000008,  0.000261 )     0.36142114
  WF centre and spread    3  ( -0.000036, -0.000084, -0.000297 )     0.37106272
  WF centre and spread    4  ( -0.000035, -0.000108,  0.000142 )     0.37132189
  WF centre and spread    5  (  0.000189, -0.000036, -0.000011 )     0.36072112
  WF centre and spread    6  (  0.000240,  0.000162,  0.000109 )     0.37105938
  WF centre and spread    7  (  4.330295,  4.277674,  4.191867 )     6.51404170
  WF centre and spread    8  (  4.177119,  4.176832,  4.176821 )     0.39379499
  WF centre and spread    9  (  4.177475,  4.177059,  4.177301 )     0.35098880
  WF centre and spread   10  (  4.176894,  4.176935,  4.177215 )     0.35097431
  WF centre and spread   11  (  4.176749,  4.176709,  4.177063 )     0.39395106
  WF centre and spread   12  (  4.177558,  4.177300,  4.177134 )     0.35094145
  WF centre and spread   13  (  2.093751,  2.093726,  2.100986 )     1.17940797
  WF centre and spread   14  (  2.106018,  2.090875,  2.091057 )     1.16386880
  WF centre and spread   15  (  2.093352,  2.099182,  2.093807 )     1.23342504
  WF centre and spread   16  (  6.270483,  6.270453,  6.260780 )     1.21956320
  WF centre and spread   17  (  6.271480,  6.270132,  6.269866 )     1.22808351
  WF centre and spread   18  (  6.269136,  6.260001,  6.268874 )     1.18270837
  Sum of centres and spreads ( 50.584222, 50.285116, 50.258265 )    24.89717292

     14    -0.515E-01     1.7674591666       24.8971729157       1.83  <-- CONV
        O_D=      1.1011249 O_OD=      9.2293441 O_TOT=     24.8971729 <-- SPRD
 Delta: O_D= -0.1481022E-01 O_OD= -0.3667232E-01 O_TOT= -0.5148254E-01 <-- DLTA
 ------------------------------------------------------------------------------
 Cycle:     15
  WF centre and spread    1  (  0.248060,  0.025157,  0.092598 )     7.46331909
  WF centre and spread    2  (  0.000124, -0.000013,  0.000249 )     0.36109373
  WF centre and spread    3  ( -0.000028, -0.000085, -0.000291 )     0.37106912
  WF centre and spread    4  ( -0.000034, -0.000090,  0.000154 )     0.37137355
  WF centre and spread    5  (  0.000175, -0.000051, -0.000009 )     0.36044770
  WF centre and spread    6  (  0.000264,  0.000181,  0.000112 )     0.37107577
  WF centre and spread    7  (  4.324717,  4.276436,  4.188894 )     6.54318246
  WF centre and spread    8  (  4.177125,  4.176835,  4.176842 )     0.39345877
  WF centre and spread    9  (  4.177478,  4.177056,  4.177298 )     0.35117320
  WF centre and spread   10  (  4.176890,  4.176931,  4.177210 )     0.35116015
  WF centre and spread   11  (  4.176755,  4.176719,  4.177059 )     0.39365269
  WF centre and spread   12  (  4.177585,  4.177309,  4.177142 )     0.35113577
  WF centre and spread   13  (  2.093683,  2.093669,  2.100990 )     1.17390047
  WF centre and spread   14  (  2.106049,  2.090933,  2.091131 )     1.15577427
  WF centre and spread   15  (  2.093454,  2.099485,  2.093919 )     1.22782597
  WF centre and spread   16  (  6.270441,  6.270406,  6.260668 )     1.21502877
  WF centre and spread   17  (  6.271529,  6.270073,  6.269803 )     1.22118771
  WF centre and spread   18  (  6.268963,  6.259937,  6.268701 )     1.17592793
  Sum of centres and spreads ( 50.563232, 50.270887, 50.252470 )    24.85178712

     15    -0.454E-01     1.5560976968       24.8517871220       1.94  <-- CONV
        O_D=      1.0920703 O_OD=      9.1930128 O_TOT=     24.8517871 <-- SPRD
 Delta: O_D= -0.9054557E-02 O_OD= -0.3633124E-01 O_TOT= -0.4538579E-01 <-- DLTA
 ------------------------------------------------------------------------------
 Cycle:     16
  WF centre and spread    1  (  0.266127,  0.034246,  0.087986 )     7.43050983
  WF centre and spread    2  (  0.000126, -0.000009,  0.000246 )     0.36110526
  WF centre and spread    3  ( -0.000020, -0.000082, -0.000289 )     0.37109267
  WF centre and spread    4  ( -0.000033, -0.000085,  0.000158 )     0.37137521
  WF centre and spread    5  (  0.000177, -0.000051, -0.000009 )     0.36039546
  WF centre and spread    6  (  0.000267,  0.000184,  0.000113 )     0.37108631
  WF centre and spread    7  (  4.327516,  4.277639,  4.195498 )     6.51616254
  WF centre and spread    8  (  4.177126,  4.176835,  4.176840 )     0.39339373
  WF centre and spread    9  (  4.177485,  4.177059,  4.177297 )     0.35120098
  WF centre and spread   10  (  4.176887,  4.176931,  4.177199 )     0.35122562
  WF centre and spread   11  (  4.176759,  4.176725,  4.177059 )     0.39364298
  WF centre and spread   12  (  4.177593,  4.177315,  4.177144 )     0.35116827
  WF centre and spread   13  (  2.093691,  2.093706,  2.100943 )     1.17428987
  WF centre and spread   14  (  2.106089,  2.090908,  2.091093 )     1.15465028
  WF centre and spread   15  (  2.093453,  2.099500,  2.093938 )     1.22671631
  WF centre and spread   16  (  6.270413,  6.270394,  6.260545 )     1.21383905
  WF centre and spread   17  (  6.271611,  6.270086,  6.269788 )     1.22122455
  WF centre and spread   18  (  6.268952,  6.259947,  6.268691 )     1.17484926
  Sum of centres and spreads ( 50.584219, 50.281248, 50.254241 )    24.78792816

     16    -0.639E-01     1.8727366036       24.7879281617       2.04  <-- CONV
        O_D=      1.0330038 O_OD=      9.1882204 O_TOT=     24.7879282 <-- SPRD
 Delta: O_D= -0.5906654E-01 O_OD= -0.4792421E-02 O_TOT= -0.6385896E-01 <-- DLTA
 ------------------------------------------------------------------------------
 Cycle:     17
  WF centre and spread    1  (  0.281570,  0.045917,  0.103851 )     7.41118054
  WF centre and spread    2  (  0.000129, -0.000004,  0.000254 )     0.36104701
  WF centre and spread    3  ( -0.000014, -0.000077, -0.000283 )     0.37110310
  WF centre and spread    4  ( -0.000033, -0.000082,  0.000160 )     0.37140277
  WF centre and spread    5  (  0.000181, -0.000051, -0.000008 )     0.36019878
  WF centre and spread    6  (  0.000270,  0.000190,  0.000116 )     0.37112210
  WF centre and spread    7  (  4.323104,  4.271755,  4.202376 )     6.48514685
  WF centre and spread    8  (  4.177126,  4.176838,  4.176839 )     0.39314969
  WF centre and spread    9  (  4.177501,  4.177064,  4.177301 )     0.35127131
  WF centre and spread   10  (  4.176887,  4.176936,  4.177197 )     0.35134598
  WF centre and spread   11  (  4.176758,  4.176727,  4.177060 )     0.39351331
  WF centre and spread   12  (  4.177618,  4.177334,  4.177153 )     0.35129789
  WF centre and spread   13  (  2.093691,  2.093775,  2.100907 )     1.17176122
  WF centre and spread   14  (  2.106103,  2.090878,  2.091060 )     1.14865140
  WF centre and spread   15  (  2.093487,  2.099546,  2.094022 )     1.22267795
  WF centre and spread   16  (  6.270381,  6.270368,  6.260437 )     1.20940643
  WF centre and spread   17  (  6.271721,  6.270125,  6.269808 )     1.21830576
  WF centre and spread   18  (  6.268905,  6.259939,  6.268661 )     1.16959843
  Sum of centres and spreads ( 50.595385, 50.287178, 50.276910 )    24.71218052

     17    -0.757E-01     1.2475890619       24.7121805239       2.15  <-- CONV
        O_D=      0.9804135 O_OD=      9.1650631 O_TOT=     24.7121805 <-- SPRD
 Delta: O_D= -0.5259030E-01 O_OD= -0.2315734E-01 O_TOT= -0.7574764E-01 <-- DLTA
 ------------------------------------------------------------------------------
 Cycle:     18
  WF centre and spread    1  (  0.271514,  0.042102,  0.092736 )     7.38884670
  WF centre and spread    2  (  0.000132, -0.000004,  0.000257 )     0.36092231
  WF centre and spread    3  ( -0.000007, -0.000074, -0.000278 )     0.37109669
  WF centre and spread    4  ( -0.000036, -0.000082,  0.000156 )     0.37140098
  WF centre and spread    5  (  0.000181, -0.000053, -0.000008 )     0.36000090
  WF centre and spread    6  (  0.000279,  0.000198,  0.000118 )     0.37114831
  WF centre and spread    7  (  4.320918,  4.260203,  4.197996 )     6.48893544
  WF centre and spread    8  (  4.177128,  4.176840,  4.176842 )     0.39291421
  WF centre and spread    9  (  4.177514,  4.177065,  4.177298 )     0.35136066
  WF centre and spread   10  (  4.176885,  4.176935,  4.177194 )     0.35148630
  WF centre and spread   11  (  4.176757,  4.176728,  4.177059 )     0.39335312
  WF centre and spread   12  (  4.177641,  4.177348,  4.177160 )     0.35144526
  WF centre and spread   13  (  2.093653,  2.093791,  2.100810 )     1.16828495
  WF centre and spread   14  (  2.106135,  2.090850,  2.091022 )     1.14248239
  WF centre and spread   15  (  2.093466,  2.099520,  2.094028 )     1.21766639
  WF centre and spread   16  (  6.270295,  6.270301,  6.260262 )     1.20493979
  WF centre and spread   17  (  6.271828,  6.270085,  6.269741 )     1.21389115
  WF centre and spread   18  (  6.268799,  6.259847,  6.268563 )     1.16453088
  Sum of centres and spreads ( 50.583081, 50.271600, 50.260955 )    24.66470642

     18    -0.475E-01     1.3981897588       24.6647064221       2.26  <-- CONV
        O_D=      0.9604746 O_OD=      9.1375278 O_TOT=     24.6647064 <-- SPRD
 Delta: O_D= -0.1993887E-01 O_OD= -0.2753524E-01 O_TOT= -0.4747410E-01 <-- DLTA
 ------------------------------------------------------------------------------
 Cycle:     19
  WF centre and spread    1  (  0.286008,  0.042025,  0.094783 )     7.35937990
  WF centre and spread    2  (  0.000136, -0.000009,  0.000252 )     0.36069776
  WF centre and spread    3  (  0.000013, -0.000074, -0.000269 )     0.37109048
  WF centre and spread    4  ( -0.000042, -0.000072,  0.000155 )     0.37140329
  WF centre and spread    5  (  0.000176, -0.000063, -0.000008 )     0.35973901
  WF centre and spread    6  (  0.000304,  0.000215,  0.000119 )     0.37118737
  WF centre and spread    7  (  4.332952,  4.251182,  4.197859 )     6.51452659
  WF centre and spread    8  (  4.177131,  4.176844,  4.176852 )     0.39257841
  WF centre and spread    9  (  4.177532,  4.177062,  4.177291 )     0.35152314
  WF centre and spread   10  (  4.176881,  4.176937,  4.177190 )     0.35172407
  WF centre and spread   11  (  4.176761,  4.176732,  4.177055 )     0.39309206
  WF centre and spread   12  (  4.177679,  4.177369,  4.177168 )     0.35169179
  WF centre and spread   13  (  2.093599,  2.093793,  2.100671 )     1.16258844
  WF centre and spread   14  (  2.106288,  2.090866,  2.091029 )     1.13344901
  WF centre and spread   15  (  2.093468,  2.099614,  2.094051 )     1.21039443
  WF centre and spread   16  (  6.270173,  6.270198,  6.260010 )     1.19850809
  WF centre and spread   17  (  6.272098,  6.270042,  6.269665 )     1.20622645
  WF centre and spread   18  (  6.268641,  6.259756,  6.268407 )     1.15691643
  Sum of centres and spreads ( 50.609797, 50.262416, 50.262281 )    24.61671671

     19    -0.480E-01     1.4698171771       24.6167167116       2.36  <-- CONV
        O_D=      0.9585001 O_OD=      9.0915126 O_TOT=     24.6167167 <-- SPRD
 Delta: O_D= -0.1974512E-02 O_OD= -0.4601520E-01 O_TOT= -0.4798971E-01 <-- DLTA
 ------------------------------------------------------------------------------
 Cycle:     20
  WF centre and spread    1  (  0.279719,  0.055242,  0.098227 )     7.33776255
  WF centre and spread    2  (  0.000137, -0.000011,  0.000245 )     0.36060267
  WF centre and spread    3  (  0.000022, -0.000074, -0.000264 )     0.37109584
  WF centre and spread    4  ( -0.000044, -0.000062,  0.000157 )     0.37142063
  WF centre and spread    5  (  0.000172, -0.000068, -0.000007 )     0.35963113
  WF centre and spread    6  (  0.000315,  0.000228,  0.000119 )     0.37121700
  WF centre and spread    7  (  4.336088,  4.248959,  4.202544 )     6.53002632
  WF centre and spread    8  (  4.177133,  4.176846,  4.176858 )     0.39242747
  WF centre and spread    9  (  4.177539,  4.177060,  4.177286 )     0.35161670
  WF centre and spread   10  (  4.176879,  4.176940,  4.177186 )     0.35185707
  WF centre and spread   11  (  4.176765,  4.176736,  4.177052 )     0.39297039
  WF centre and spread   12  (  4.177695,  4.177379,  4.177171 )     0.35182372
  WF centre and spread   13  (  2.093580,  2.093797,  2.100611 )     1.16013189
  WF centre and spread   14  (  2.106344,  2.090880,  2.091038 )     1.12926074
  WF centre and spread   15  (  2.093486,  2.099735,  2.094073 )     1.20728578
  WF centre and spread   16  (  6.270124,  6.270161,  6.259895 )     1.19557308
  WF centre and spread   17  (  6.272205,  6.270026,  6.269631 )     1.20270461
  WF centre and spread   18  (  6.268577,  6.259762,  6.268344 )     1.15363390
  Sum of centres and spreads ( 50.606738, 50.273534, 50.270166 )    24.59104151

     20    -0.257E-01     2.0030417811       24.5910415084       2.47  <-- CONV
        O_D=      0.9527791 O_OD=      9.0715584 O_TOT=     24.5910415 <-- SPRD
 Delta: O_D= -0.5720962E-02 O_OD= -0.1995424E-01 O_TOT= -0.2567520E-01 <-- DLTA
 ------------------------------------------------------------------------------
 Cycle:     21
  WF centre and spread    1  (  0.269694,  0.070323,  0.095879 )     7.31902642
  WF centre and spread    2  (  0.000134, -0.000013,  0.000233 )     0.36052111
  WF centre and spread    3  (  0.000034, -0.000074, -0.000262 )     0.37111055
  WF centre and spread    4  ( -0.000044, -0.000044,  0.000158 )     0.37145737
  WF centre and spread    5  (  0.000169, -0.000072, -0.000009 )     0.35952404
  WF centre and spread    6  (  0.000328,  0.000245,  0.000119 )     0.37126673
  WF centre and spread    7  (  4.336263,  4.251171,  4.205743 )     6.53686918
  WF centre and spread    8  (  4.177134,  4.176848,  4.176863 )     0.39226675
  WF centre and spread    9  (  4.177547,  4.177058,  4.177278 )     0.35173496
  WF centre and spread   10  (  4.176877,  4.176946,  4.177176 )     0.35202235
  WF centre and spread   11  (  4.176772,  4.176746,  4.177048 )     0.39284176
  WF centre and spread   12  (  4.177711,  4.177391,  4.177174 )     0.35198445
  WF centre and spread   13  (  2.093565,  2.093800,  2.100486 )     1.15764939
  WF centre and spread   14  (  2.106394,  2.090899,  2.091053 )     1.12468426
  WF centre and spread   15  (  2.093527,  2.099978,  2.094112 )     1.20433492
  WF centre and spread   16  (  6.270085,  6.270136,  6.259698 )     1.19235025
  WF centre and spread   17  (  6.272310,  6.270013,  6.269599 )     1.19904878
  WF centre and spread   18  (  6.268517,  6.259833,  6.268280 )     1.15026272
  Sum of centres and spreads ( 50.597016, 50.291184, 50.270627 )    24.55895602

     21    -0.321E-01     1.6479593152       24.5589560165       2.58  <-- CONV
        O_D=      0.9406715 O_OD=      9.0515805 O_TOT=     24.5589560 <-- SPRD
 Delta: O_D= -0.1210756E-01 O_OD= -0.1997793E-01 O_TOT= -0.3208549E-01 <-- DLTA
 ------------------------------------------------------------------------------
 Cycle:     22
  WF centre and spread    1  (  0.281660,  0.057490,  0.088577 )     7.30558676
  WF centre and spread    2  (  0.000131, -0.000011,  0.000229 )     0.36053071
  WF centre and spread    3  (  0.000036, -0.000073, -0.000272 )     0.37113191
  WF centre and spread    4  ( -0.000043, -0.000038,  0.000150 )     0.37147177
  WF centre and spread    5  (  0.000176, -0.000064, -0.000013 )     0.35957397
  WF centre and spread    6  (  0.000329,  0.000245,  0.000119 )     0.37127898
  WF centre and spread    7  (  4.341982,  4.261392,  4.179319 )     6.54053068
  WF centre and spread    8  (  4.177132,  4.176848,  4.176857 )     0.39226786
  WF centre and spread    9  (  4.177553,  4.177060,  4.177275 )     0.35174960
  WF centre and spread   10  (  4.176877,  4.176951,  4.177170 )     0.35204206
  WF centre and spread   11  (  4.176773,  4.176749,  4.177048 )     0.39283393
  WF centre and spread   12  (  4.177713,  4.177391,  4.177175 )     0.35200085
  WF centre and spread   13  (  2.093558,  2.093788,  2.100363 )     1.15778071
  WF centre and spread   14  (  2.106428,  2.090896,  2.091046 )     1.12456921
  WF centre and spread   15  (  2.093538,  2.100071,  2.094117 )     1.20449540
  WF centre and spread   16  (  6.270105,  6.270151,  6.259550 )     1.19256363
  WF centre and spread   17  (  6.272335,  6.270015,  6.269612 )     1.19924517
  WF centre and spread   18  (  6.268515,  6.259879,  6.268279 )     1.15022514
  Sum of centres and spreads ( 50.614798, 50.288739, 50.236602 )    24.54987833

     22    -0.908E-02     3.6870484708       24.5498783322       2.68  <-- CONV
        O_D=      0.9306291 O_OD=      9.0525452 O_TOT=     24.5498783 <-- SPRD
 Delta: O_D= -0.1004245E-01 O_OD=  0.9647702E-03 O_TOT= -0.9077684E-02 <-- DLTA
 ------------------------------------------------------------------------------
 Cycle:     23
  WF centre and spread    1  (  0.282914,  0.057113,  0.082307 )     7.29432162
  WF centre and spread    2  (  0.000126, -0.000008,  0.000223 )     0.36052617
  WF centre and spread    3  (  0.000038, -0.000074, -0.000275 )     0.37120761
  WF centre and spread    4  ( -0.000042, -0.000027,  0.000152 )     0.37152560
  WF centre and spread    5  (  0.000174, -0.000064, -0.000014 )     0.35976523
  WF centre and spread    6  (  0.000330,  0.000252,  0.000119 )     0.37130466
  WF centre and spread    7  (  4.330049,  4.267250,  4.188048 )     6.49280624
  WF centre and spread    8  (  4.177131,  4.176850,  4.176859 )     0.39228798
  WF centre and spread    9  (  4.177554,  4.177059,  4.177271 )     0.35179634
  WF centre and spread   10  (  4.176876,  4.176954,  4.177163 )     0.35209295
  WF centre and spread   11  (  4.176775,  4.176755,  4.177046 )     0.39279486
  WF centre and spread   12  (  4.177716,  4.177395,  4.177176 )     0.35204563
  WF centre and spread   13  (  2.093532,  2.093751,  2.100328 )     1.15856768
  WF centre and spread   14  (  2.106394,  2.090881,  2.091011 )     1.12417601
  WF centre and spread   15  (  2.093582,  2.100280,  2.094128 )     1.20458699
  WF centre and spread   16  (  6.270159,  6.270192,  6.259475 )     1.19300141
  WF centre and spread   17  (  6.272290,  6.270028,  6.269653 )     1.19956679
  WF centre and spread   18  (  6.268507,  6.259928,  6.268281 )     1.15023973
  Sum of centres and spreads ( 50.604105, 50.294516, 50.238951 )    24.49261350

     23    -0.573E-01     2.4316624363       24.4926134963       2.79  <-- CONV
        O_D=      0.8705890 O_OD=      9.0553205 O_TOT=     24.4926135 <-- SPRD
 Delta: O_D= -0.6004014E-01 O_OD=  0.2775301E-02 O_TOT= -0.5726484E-01 <-- DLTA
 ------------------------------------------------------------------------------
 Cycle:     24
  WF centre and spread    1  (  0.274867,  0.064448,  0.093033 )     7.29000755
  WF centre and spread    2  (  0.000125, -0.000009,  0.000221 )     0.36047301
  WF centre and spread    3  (  0.000039, -0.000076, -0.000274 )     0.37122529
  WF centre and spread    4  ( -0.000042, -0.000021,  0.000156 )     0.37153156
  WF centre and spread    5  (  0.000170, -0.000066, -0.000013 )     0.35980782
  WF centre and spread    6  (  0.000333,  0.000256,  0.000119 )     0.37130369
  WF centre and spread    7  (  4.328765,  4.271654,  4.191630 )     6.47993122
  WF centre and spread    8  (  4.177131,  4.176851,  4.176862 )     0.39226172
  WF centre and spread    9  (  4.177554,  4.177057,  4.177269 )     0.35182508
  WF centre and spread   10  (  4.176877,  4.176958,  4.177166 )     0.35213400
  WF centre and spread   11  (  4.176775,  4.176756,  4.177045 )     0.39272984
  WF centre and spread   12  (  4.177720,  4.177399,  4.177176 )     0.35208627
  WF centre and spread   13  (  2.093520,  2.093725,  2.100341 )     1.15804414
  WF centre and spread   14  (  2.106385,  2.090892,  2.091022 )     1.12307311
  WF centre and spread   15  (  2.093616,  2.100402,  2.094138 )     1.20346768
  WF centre and spread   16  (  6.270183,  6.270203,  6.259483 )     1.19237353
  WF centre and spread   17  (  6.272270,  6.270021,  6.269664 )     1.19846056
  WF centre and spread   18  (  6.268493,  6.259949,  6.268263 )     1.14968101
  Sum of centres and spreads ( 50.594782, 50.306400, 50.253301 )    24.47041707

     24    -0.222E-01     1.2235814603       24.4704170699       2.90  <-- CONV
        O_D=      0.8540776 O_OD=      9.0496354 O_TOT=     24.4704171 <-- SPRD
 Delta: O_D= -0.1651132E-01 O_OD= -0.5685106E-02 O_TOT= -0.2219643E-01 <-- DLTA
 ------------------------------------------------------------------------------
 Cycle:     25
  WF centre and spread    1  (  0.285597,  0.064868,  0.078861 )     7.27248232
  WF centre and spread    2  (  0.000122, -0.000010,  0.000211 )     0.36036195
  WF centre and spread    3  (  0.000051, -0.000077, -0.000276 )     0.37127147
  WF centre and spread    4  ( -0.000042, -0.000006,  0.000164 )     0.37154475
  WF centre and spread    5  (  0.000163, -0.000073, -0.000012 )     0.35985508
  WF centre and spread    6  (  0.000344,  0.000261,  0.000117 )     0.37129881
  WF centre and spread    7  (  4.333124,  4.275182,  4.192968 )     6.48013484
  WF centre and spread    8  (  4.177132,  4.176852,  4.176868 )     0.39217595
  WF centre and spread    9  (  4.177558,  4.177053,  4.177257 )     0.35190520
  WF centre and spread   10  (  4.176877,  4.176966,  4.177154 )     0.35225471
  WF centre and spread   11  (  4.176782,  4.176765,  4.177042 )     0.39257949
  WF centre and spread   12  (  4.177736,  4.177407,  4.177180 )     0.35220039
  WF centre and spread   13  (  2.093472,  2.093658,  2.100229 )     1.15702981
  WF centre and spread   14  (  2.106408,  2.090893,  2.091017 )     1.11997123
  WF centre and spread   15  (  2.093638,  2.100605,  2.094117 )     1.19974711
  WF centre and spread   16  (  6.270192,  6.270201,  6.259338 )     1.18984110
  WF centre and spread   17  (  6.272271,  6.269965,  6.269626 )     1.19538743
  WF centre and spread   18  (  6.268419,  6.259942,  6.268181 )     1.14822838
  Sum of centres and spreads ( 50.609843, 50.310451, 50.240042 )    24.43827001

     25    -0.321E-01     1.4261284946       24.4382700127       3.00  <-- CONV
        O_D=      0.8380567 O_OD=      9.0335093 O_TOT=     24.4382700 <-- SPRD
 Delta: O_D= -0.1602098E-01 O_OD= -0.1612607E-01 O_TOT= -0.3214706E-01 <-- DLTA
 ------------------------------------------------------------------------------
 Cycle:     26
  WF centre and spread    1  (  0.285397,  0.063805,  0.077164 )     7.26660009
  WF centre and spread    2  (  0.000122, -0.000010,  0.000211 )     0.36034714
  WF centre and spread    3  (  0.000053, -0.000078, -0.000277 )     0.37130644
  WF centre and spread    4  ( -0.000042, -0.000002,  0.000165 )     0.37155590
  WF centre and spread    5  (  0.000161, -0.000074, -0.000012 )     0.35987394
  WF centre and spread    6  (  0.000347,  0.000263,  0.000117 )     0.37131699
  WF centre and spread    7  (  4.327650,  4.277073,  4.193745 )     6.47666677
  WF centre and spread    8  (  4.177131,  4.176852,  4.176869 )     0.39213925
  WF centre and spread    9  (  4.177560,  4.177052,  4.177253 )     0.35194021
  WF centre and spread   10  (  4.176877,  4.176970,  4.177152 )     0.35230978
  WF centre and spread   11  (  4.176782,  4.176766,  4.177041 )     0.39252541
  WF centre and spread   12  (  4.177743,  4.177413,  4.177182 )     0.35225932
  WF centre and spread   13  (  2.093455,  2.093633,  2.100195 )     1.15660907
  WF centre and spread   14  (  2.106385,  2.090877,  2.091001 )     1.11869990
  WF centre and spread   15  (  2.093633,  2.100680,  2.094098 )     1.19834744
  WF centre and spread   16  (  6.270194,  6.270195,  6.259281 )     1.18889875
  WF centre and spread   17  (  6.272254,  6.269955,  6.269623 )     1.19453644
  WF centre and spread   18  (  6.268387,  6.259934,  6.268144 )     1.14771031
  Sum of centres and spreads ( 50.604088, 50.311303, 50.238952 )    24.42364313

     26    -0.146E-01     1.7545740333       24.4236431335       3.11  <-- CONV
        O_D=      0.8287530 O_OD=      9.0281861 O_TOT=     24.4236431 <-- SPRD
 Delta: O_D= -0.9303666E-02 O_OD= -0.5323213E-02 O_TOT= -0.1462688E-01 <-- DLTA
 ------------------------------------------------------------------------------
 Cycle:     27
  WF centre and spread    1  (  0.288005,  0.066041,  0.060946 )     7.26430840
  WF centre and spread    2  (  0.000121, -0.000008,  0.000211 )     0.36034388
  WF centre and spread    3  (  0.000056, -0.000079, -0.000279 )     0.37135086
  WF centre and spread    4  ( -0.000042,  0.000003,  0.000166 )     0.37157324
  WF centre and spread    5  (  0.000159, -0.000075, -0.000011 )     0.35989166
  WF centre and spread    6  (  0.000350,  0.000265,  0.000117 )     0.37134408
  WF centre and spread    7  (  4.317789,  4.278863,  4.195093 )     6.48085971
  WF centre and spread    8  (  4.177131,  4.176853,  4.176870 )     0.39209602
  WF centre and spread    9  (  4.177563,  4.177051,  4.177248 )     0.35198246
  WF centre and spread   10  (  4.176877,  4.176974,  4.177147 )     0.35237937
  WF centre and spread   11  (  4.176782,  4.176768,  4.177040 )     0.39247033
  WF centre and spread   12  (  4.177752,  4.177420,  4.177185 )     0.35233191
  WF centre and spread   13  (  2.093434,  2.093609,  2.100136 )     1.15623200
  WF centre and spread   14  (  2.106357,  2.090851,  2.090975 )     1.11723803
  WF centre and spread   15  (  2.093615,  2.100753,  2.094069 )     1.19672410
  WF centre and spread   16  (  6.270189,  6.270186,  6.259187 )     1.18776686
  WF centre and spread   17  (  6.272232,  6.269940,  6.269612 )     1.19365889
  WF centre and spread   18  (  6.268349,  6.259922,  6.268101 )     1.14717799
  Sum of centres and spreads ( 50.596719, 50.315336, 50.223813 )    24.41972976

     27    -0.391E-02     2.1168846287       24.4197297627       3.22  <-- CONV
        O_D=      0.8304523 O_OD=      9.0225735 O_TOT=     24.4197298 <-- SPRD
 Delta: O_D=  0.1699292E-02 O_OD= -0.5612663E-02 O_TOT= -0.3913371E-02 <-- DLTA
 ------------------------------------------------------------------------------
 Cycle:     28
  WF centre and spread    1  (  0.282175,  0.062520,  0.080881 )     7.26806938
  WF centre and spread    2  (  0.000125, -0.000012,  0.000213 )     0.36034107
  WF centre and spread    3  (  0.000056, -0.000080, -0.000277 )     0.37134618
  WF centre and spread    4  ( -0.000044, -0.000001,  0.000164 )     0.37156970
  WF centre and spread    5  (  0.000160, -0.000074, -0.000012 )     0.35987759
  WF centre and spread    6  (  0.000354,  0.000263,  0.000117 )     0.37134325
  WF centre and spread    7  (  4.331708,  4.273108,  4.191660 )     6.47991291
  WF centre and spread    8  (  4.177131,  4.176853,  4.176870 )     0.39208768
  WF centre and spread    9  (  4.177564,  4.177049,  4.177248 )     0.35198976
  WF centre and spread   10  (  4.176880,  4.176976,  4.177157 )     0.35242729
  WF centre and spread   11  (  4.176781,  4.176764,  4.177040 )     0.39246869
  WF centre and spread   12  (  4.177754,  4.177419,  4.177184 )     0.35234021
  WF centre and spread   13  (  2.093462,  2.093625,  2.100189 )     1.15592734
  WF centre and spread   14  (  2.106411,  2.090886,  2.091022 )     1.11732236
  WF centre and spread   15  (  2.093622,  2.100729,  2.094075 )     1.19662717
  WF centre and spread   16  (  6.270186,  6.270181,  6.259210 )     1.18822724
  WF centre and spread   17  (  6.272281,  6.269944,  6.269619 )     1.19309119
  WF centre and spread   18  (  6.268373,  6.259936,  6.268123 )     1.14710546
  Sum of centres and spreads ( 50.604979, 50.306087, 50.240483 )    24.42207445

     28     0.234E-02     3.6885706940       24.4220744539       3.32  <-- CONV
        O_D=      0.8342094 O_OD=      9.0211611 O_TOT=     24.4220745 <-- SPRD
 Delta: O_D=  0.3757088E-02 O_OD= -0.1412397E-02 O_TOT=  0.2344691E-02 <-- DLTA
 ------------------------------------------------------------------------------
 Cycle:     29
  WF centre and spread    1  (  0.281695,  0.063260,  0.076849 )     7.25322279
  WF centre and spread    2  (  0.000126, -0.000010,  0.000218 )     0.36040999
  WF centre and spread    3  (  0.000054, -0.000079, -0.000277 )     0.37139331
  WF centre and spread    4  ( -0.000044, -0.000001,  0.000161 )     0.37156857
  WF centre and spread    5  (  0.000162, -0.000071, -0.000012 )     0.35986813
  WF centre and spread    6  (  0.000353,  0.000264,  0.000118 )     0.37138404
  WF centre and spread    7  (  4.320838,  4.273444,  4.193878 )     6.46977363
  WF centre and spread    8  (  4.177130,  4.176853,  4.176868 )     0.39207317
  WF centre and spread    9  (  4.177567,  4.177050,  4.177249 )     0.35200584
  WF centre and spread   10  (  4.176880,  4.176979,  4.177157 )     0.35248500
  WF centre and spread   11  (  4.176778,  4.176762,  4.177040 )     0.39248787
  WF centre and spread   12  (  4.177758,  4.177423,  4.177186 )     0.35237461
  WF centre and spread   13  (  2.093479,  2.093647,  2.100196 )     1.15611774
  WF centre and spread   14  (  2.106380,  2.090858,  2.090998 )     1.11725644
  WF centre and spread   15  (  2.093595,  2.100729,  2.094058 )     1.19635746
  WF centre and spread   16  (  6.270169,  6.270167,  6.259155 )     1.18828688
  WF centre and spread   17  (  6.272285,  6.269966,  6.269634 )     1.19379642
  WF centre and spread   18  (  6.268367,  6.259940,  6.268114 )     1.14705606
  Sum of centres and spreads ( 50.593571, 50.307180, 50.238589 )    24.39791794

     29    -0.242E-01     2.0359636950       24.3979179440       3.43  <-- CONV
        O_D=      0.8092765 O_OD=      9.0219374 O_TOT=     24.3979179 <-- SPRD
 Delta: O_D= -0.2493283E-01 O_OD=  0.7763221E-03 O_TOT= -0.2415651E-01 <-- DLTA
 ------------------------------------------------------------------------------
 Cycle:     30
  WF centre and spread    1  (  0.280230,  0.065714,  0.072323 )     7.24734795
  WF centre and spread    2  (  0.000127, -0.000011,  0.000216 )     0.36040689
  WF centre and spread    3  (  0.000059, -0.000078, -0.000278 )     0.37139827
  WF centre and spread    4  ( -0.000044,  0.000001,  0.000158 )     0.37156263
  WF centre and spread    5  (  0.000164, -0.000069, -0.000013 )     0.35983724
  WF centre and spread    6  (  0.000356,  0.000265,  0.000118 )     0.37139300
  WF centre and spread    7  (  4.325277,  4.271622,  4.191429 )     6.46577736
  WF centre and spread    8  (  4.177130,  4.176853,  4.176866 )     0.39203950
  WF centre and spread    9  (  4.177570,  4.177050,  4.177244 )     0.35201727
  WF centre and spread   10  (  4.176880,  4.176982,  4.177153 )     0.35252514
  WF centre and spread   11  (  4.176781,  4.176764,  4.177039 )     0.39246581
  WF centre and spread   12  (  4.177763,  4.177426,  4.177187 )     0.35240731
  WF centre and spread   13  (  2.093480,  2.093657,  2.100130 )     1.15560773
  WF centre and spread   14  (  2.106421,  2.090859,  2.090999 )     1.11653670
  WF centre and spread   15  (  2.093584,  2.100750,  2.094055 )     1.19528816
  WF centre and spread   16  (  6.270150,  6.270157,  6.259057 )     1.18755184
  WF centre and spread   17  (  6.272340,  6.269963,  6.269621 )     1.19297073
  WF centre and spread   18  (  6.268358,  6.259953,  6.268110 )     1.14647498
  Sum of centres and spreads ( 50.596626, 50.307858, 50.231415 )    24.38360852

     30    -0.143E-01     1.3069566637       24.3836085189       3.54  <-- CONV
        O_D=      0.7999900 O_OD=      9.0169145 O_TOT=     24.3836085 <-- SPRD
 Delta: O_D= -0.9286579E-02 O_OD= -0.5022847E-02 O_TOT= -0.1430943E-01 <-- DLTA
 ------------------------------------------------------------------------------
 Cycle:     31
  WF centre and spread    1  (  0.286180,  0.063090,  0.068731 )     7.23654121
  WF centre and spread    2  (  0.000128, -0.000013,  0.000211 )     0.36037750
  WF centre and spread    3  (  0.000069, -0.000076, -0.000278 )     0.37139759
  WF centre and spread    4  ( -0.000045,  0.000007,  0.000154 )     0.37154997
  WF centre and spread    5  (  0.000168, -0.000066, -0.000015 )     0.35977169
  WF centre and spread    6  (  0.000363,  0.000267,  0.000118 )     0.37140097
  WF centre and spread    7  (  4.333271,  4.270080,  4.187923 )     6.46805678
  WF centre and spread    8  (  4.177130,  4.176852,  4.176864 )     0.39196788
  WF centre and spread    9  (  4.177576,  4.177049,  4.177236 )     0.35204046
  WF centre and spread   10  (  4.176880,  4.176988,  4.177145 )     0.35259441
  WF centre and spread   11  (  4.176785,  4.176768,  4.177038 )     0.39240704
  WF centre and spread   12  (  4.177772,  4.177432,  4.177189 )     0.35247234
  WF centre and spread   13  (  2.093477,  2.093672,  2.099997 )     1.15437675
  WF centre and spread   14  (  2.106500,  2.090867,  2.091004 )     1.11474073
  WF centre and spread   15  (  2.093577,  2.100815,  2.094056 )     1.19302272
  WF centre and spread   16  (  6.270123,  6.270142,  6.258890 )     1.18581573
  WF centre and spread   17  (  6.272442,  6.269954,  6.269600 )     1.19109596
  WF centre and spread   18  (  6.268336,  6.259981,  6.268095 )     1.14509784
  Sum of centres and spreads ( 50.610733, 50.303809, 50.223957 )    24.36472756

     31    -0.189E-01     1.5722277080       24.3647275609       3.64  <-- CONV
        O_D=      0.7923596 O_OD=      9.0056639 O_TOT=     24.3647276 <-- SPRD
 Delta: O_D= -0.7630325E-02 O_OD= -0.1125063E-01 O_TOT= -0.1888096E-01 <-- DLTA
 ------------------------------------------------------------------------------
 Cycle:     32
  WF centre and spread    1  (  0.280585,  0.069066,  0.074532 )     7.23303616
  WF centre and spread    2  (  0.000128, -0.000012,  0.000209 )     0.36036301
  WF centre and spread    3  (  0.000074, -0.000076, -0.000279 )     0.37141264
  WF centre and spread    4  ( -0.000045,  0.000014,  0.000151 )     0.37153699
  WF centre and spread    5  (  0.000170, -0.000062, -0.000017 )     0.35970588
  WF centre and spread    6  (  0.000365,  0.000272,  0.000118 )     0.37142523
  WF centre and spread    7  (  4.331315,  4.273195,  4.187323 )     6.46640926
  WF centre and spread    8  (  4.177128,  4.176854,  4.176862 )     0.39188906
  WF centre and spread    9  (  4.177582,  4.177049,  4.177230 )     0.35207052
  WF centre and spread   10  (  4.176882,  4.176996,  4.177141 )     0.35266351
  WF centre and spread   11  (  4.176787,  4.176771,  4.177036 )     0.39234100
  WF centre and spread   12  (  4.177782,  4.177442,  4.177191 )     0.35255464
  WF centre and spread   13  (  2.093473,  2.093684,  2.099878 )     1.15300942
  WF centre and spread   14  (  2.106506,  2.090858,  2.090996 )     1.11269431
  WF centre and spread   15  (  2.093581,  2.100943,  2.094067 )     1.19080417
  WF centre and spread   16  (  6.270108,  6.270125,  6.258756 )     1.18392608
  WF centre and spread   17  (  6.272494,  6.269964,  6.269604 )     1.18961584
  WF centre and spread   18  (  6.268310,  6.260038,  6.268072 )     1.14352752
  Sum of centres and spreads ( 50.603225, 50.313121, 50.228870 )    24.34898526

     32    -0.157E-01     1.2058517535       24.3489852552       3.75  <-- CONV
        O_D=      0.7871915 O_OD=      8.9950898 O_TOT=     24.3489853 <-- SPRD
 Delta: O_D= -0.5168142E-02 O_OD= -0.1057416E-01 O_TOT= -0.1574231E-01 <-- DLTA
 ------------------------------------------------------------------------------
[...]
 Delta: O_D= -0.6488388E-02 O_OD= -0.2283439E-02 O_TOT= -0.8771828E-02 <-- DLTA
 ------------------------------------------------------------------------------
 Cycle:     92
  WF centre and spread    1  (  0.296966,  0.125762,  0.029441 )     7.10192362
  WF centre and spread    2  (  0.000127, -0.000000,  0.000186 )     0.36029394
  WF centre and spread    3  (  0.000197, -0.000075, -0.000268 )     0.37210070
  WF centre and spread    4  ( -0.000068,  0.000133,  0.000105 )     0.37202309
  WF centre and spread    5  (  0.000182, -0.000014, -0.000038 )     0.35889702
  WF centre and spread    6  (  0.000452,  0.000364,  0.000109 )     0.37214224
  WF centre and spread    7  (  4.337690,  4.285509,  4.182532 )     6.47229107
  WF centre and spread    8  (  4.177088,  4.176878,  4.176831 )     0.39005406
  WF centre and spread    9  (  4.177678,  4.177019,  4.177131 )     0.35283700
  WF centre and spread   10  (  4.176901,  4.177186,  4.177096 )     0.35351023
  WF centre and spread   11  (  4.176793,  4.176795,  4.177006 )     0.39096141
  WF centre and spread   12  (  4.177965,  4.177640,  4.177210 )     0.35385532
  WF centre and spread   13  (  2.093125,  2.093410,  2.098472 )     1.12547877
  WF centre and spread   14  (  2.106820,  2.090602,  2.090834 )     1.07446892
  WF centre and spread   15  (  2.092922,  2.102760,  2.093377 )     1.14037149
  WF centre and spread   16  (  6.269720,  6.269793,  6.256547 )     1.14825599
  WF centre and spread   17  (  6.272979,  6.269931,  6.269537 )     1.15399010
  WF centre and spread   18  (  6.268204,  6.261508,  6.268063 )     1.11410696
  Sum of centres and spreads ( 50.625742, 50.385201, 50.174171 )    24.00756192

     92    -0.622E-02     1.4609790267       24.0075619224      10.15  <-- CONV
        O_D=      0.6586657 O_OD=      8.7821922 O_TOT=     24.0075619 <-- SPRD
 Delta: O_D= -0.3550057E-02 O_OD= -0.2670340E-02 O_TOT= -0.6220397E-02 <-- DLTA
 ------------------------------------------------------------------------------
 Cycle:     93
  WF centre and spread    1  (  0.297823,  0.121723,  0.029225 )     7.10304619
  WF centre and spread    2  (  0.000126,  0.000001,  0.000185 )     0.36027991
  WF centre and spread    3  (  0.000196, -0.000075, -0.000268 )     0.37210069
  WF centre and spread    4  ( -0.000068,  0.000136,  0.000105 )     0.37201443
  WF centre and spread    5  (  0.000181, -0.000014, -0.000038 )     0.35888397
  WF centre and spread    6  (  0.000451,  0.000367,  0.000109 )     0.37213917
  WF centre and spread    7  (  4.333064,  4.297621,  4.179025 )     6.49373884
  WF centre and spread    8  (  4.177087,  4.176879,  4.176831 )     0.39004146
  WF centre and spread    9  (  4.177679,  4.177019,  4.177131 )     0.35283640
  WF centre and spread   10  (  4.176901,  4.177185,  4.177094 )     0.35349992
  WF centre and spread   11  (  4.176793,  4.176796,  4.177006 )     0.39094842
  WF centre and spread   12  (  4.177965,  4.177641,  4.177210 )     0.35385323
  WF centre and spread   13  (  2.093122,  2.093406,  2.098462 )     1.12519337
  WF centre and spread   14  (  2.106812,  2.090601,  2.090834 )     1.07422673
  WF centre and spread   15  (  2.092923,  2.102789,  2.093379 )     1.14005170
  WF centre and spread   16  (  6.269717,  6.269786,  6.256534 )     1.14796424
  WF centre and spread   17  (  6.272976,  6.269934,  6.269541 )     1.15378007
  WF centre and spread   18  (  6.268200,  6.261529,  6.268057 )     1.11365840
  Sum of centres and spreads ( 50.621948, 50.393325, 50.170422 )    24.02825715

     93     0.207E-01     2.3005128105       24.0282571503      10.26  <-- CONV
        O_D=      0.6815949 O_OD=      8.7799583 O_TOT=     24.0282572 <-- SPRD
 Delta: O_D=  0.2292919E-01 O_OD= -0.2233960E-02 O_TOT=  0.2069523E-01 <-- DLTA
 ------------------------------------------------------------------------------
 Cycle:     94
  WF centre and spread    1  (  0.298434,  0.124919,  0.017978 )     7.13657493
  WF centre and spread    2  (  0.000127,  0.000001,  0.000185 )     0.36035593
  WF centre and spread    3  (  0.000198, -0.000074, -0.000267 )     0.37210257
  WF centre and spread    4  ( -0.000068,  0.000136,  0.000105 )     0.37207207
  WF centre and spread    5  (  0.000181, -0.000014, -0.000039 )     0.35888636
  WF centre and spread    6  (  0.000453,  0.000366,  0.000110 )     0.37219755
  WF centre and spread    7  (  4.336538,  4.285887,  4.181467 )     6.47208894
  WF centre and spread    8  (  4.177087,  4.176878,  4.176830 )     0.39003941
  WF centre and spread    9  (  4.177679,  4.177019,  4.177129 )     0.35283742
  WF centre and spread   10  (  4.176900,  4.177187,  4.177092 )     0.35349406
  WF centre and spread   11  (  4.176794,  4.176797,  4.177006 )     0.39097211
  WF centre and spread   12  (  4.177966,  4.177641,  4.177209 )     0.35385943
  WF centre and spread   13  (  2.093133,  2.093412,  2.098466 )     1.12536989
  WF centre and spread   14  (  2.106823,  2.090586,  2.090827 )     1.07435331
  WF centre and spread   15  (  2.092886,  2.102772,  2.093345 )     1.14057056
  WF centre and spread   16  (  6.269712,  6.269796,  6.256498 )     1.14802539
  WF centre and spread   17  (  6.272970,  6.269935,  6.269531 )     1.15381000
  WF centre and spread   18  (  6.268235,  6.261542,  6.268091 )     1.11437507
  Sum of centres and spreads ( 50.626048, 50.384787, 50.161565 )    24.04198502

     94     0.137E-01     4.6117143042       24.0419850199      10.37  <-- CONV
        O_D=      0.6938814 O_OD=      8.7813996 O_TOT=     24.0419850 <-- SPRD
 Delta: O_D=  0.1228658E-01 O_OD=  0.1441291E-02 O_TOT=  0.1372787E-01 <-- DLTA
 ------------------------------------------------------------------------------
 Cycle:     95
  WF centre and spread    1  (  0.297623,  0.124641,  0.024692 )     7.10565567
  WF centre and spread    2  (  0.000129,  0.000002,  0.000188 )     0.36046174
  WF centre and spread    3  (  0.000198, -0.000074, -0.000266 )     0.37211992
  WF centre and spread    4  ( -0.000068,  0.000137,  0.000106 )     0.37214124
  WF centre and spread    5  (  0.000180, -0.000015, -0.000039 )     0.35887825
  WF centre and spread    6  (  0.000455,  0.000367,  0.000111 )     0.37227409
  WF centre and spread    7  (  4.333657,  4.282908,  4.188353 )     6.47918879
  WF centre and spread    8  (  4.177087,  4.176877,  4.176830 )     0.39002792
  WF centre and spread    9  (  4.177680,  4.177018,  4.177130 )     0.35284896
  WF centre and spread   10  (  4.176900,  4.177190,  4.177091 )     0.35354353
  WF centre and spread   11  (  4.176792,  4.176796,  4.177006 )     0.39100940
  WF centre and spread   12  (  4.177968,  4.177642,  4.177209 )     0.35387055
  WF centre and spread   13  (  2.093159,  2.093427,  2.098507 )     1.12568912
  WF centre and spread   14  (  2.106828,  2.090575,  2.090830 )     1.07459490
  WF centre and spread   15  (  2.092836,  2.102735,  2.093297 )     1.14118239
  WF centre and spread   16  (  6.269691,  6.269798,  6.256468 )     1.14841806
  WF centre and spread   17  (  6.272951,  6.269932,  6.269512 )     1.15390047
  WF centre and spread   18  (  6.268284,  6.261591,  6.268140 )     1.11520605
  Sum of centres and spreads ( 50.622350, 50.381546, 50.175167 )    24.02101104

     95    -0.210E-01     5.0609905773       24.0210110435      10.48  <-- CONV
        O_D=      0.6701283 O_OD=      8.7841787 O_TOT=     24.0210110 <-- SPRD
 Delta: O_D= -0.2375309E-01 O_OD=  0.2779114E-02 O_TOT= -0.2097398E-01 <-- DLTA
 ------------------------------------------------------------------------------
 Cycle:     96
  WF centre and spread    1  (  0.295530,  0.137238,  0.022541 )     7.11518665
  WF centre and spread    2  (  0.000131,  0.000002,  0.000189 )     0.36059047
  WF centre and spread    3  (  0.000200, -0.000074, -0.000269 )     0.37215540
  WF centre and spread    4  ( -0.000067,  0.000141,  0.000100 )     0.37225115
  WF centre and spread    5  (  0.000185, -0.000009, -0.000042 )     0.35891173
  WF centre and spread    6  (  0.000456,  0.000369,  0.000112 )     0.37235962
  WF centre and spread    7  (  4.336794,  4.288795,  4.175578 )     6.49418597
  WF centre and spread    8  (  4.177085,  4.176877,  4.176824 )     0.39002226
  WF centre and spread    9  (  4.177683,  4.177017,  4.177125 )     0.35291870
  WF centre and spread   10  (  4.176902,  4.177198,  4.177091 )     0.35361425
  WF centre and spread   11  (  4.176792,  4.176796,  4.177007 )     0.39105222
  WF centre and spread   12  (  4.177970,  4.177646,  4.177208 )     0.35388466
  WF centre and spread   13  (  2.093187,  2.093441,  2.098471 )     1.12653502
  WF centre and spread   14  (  2.106843,  2.090563,  2.090834 )     1.07484829
  WF centre and spread   15  (  2.092778,  2.102741,  2.093237 )     1.14192863
  WF centre and spread   16  (  6.269675,  6.269792,  6.256334 )     1.14939314
  WF centre and spread   17  (  6.272945,  6.269925,  6.269500 )     1.15409905
  WF centre and spread   18  (  6.268333,  6.261695,  6.268190 )     1.11613067
  Sum of centres and spreads ( 50.623423, 50.400154, 50.160030 )    24.05006789

     96     0.291E-01     4.8290883863       24.0500678893      10.58  <-- CONV
        O_D=      0.6941323 O_OD=      8.7892316 O_TOT=     24.0500679 <-- SPRD
 Delta: O_D=  0.2400394E-01 O_OD=  0.5052911E-02 O_TOT=  0.2905685E-01 <-- DLTA
 ------------------------------------------------------------------------------
 Cycle:     97
  WF centre and spread    1  (  0.300913,  0.126234,  0.025768 )     7.09670263
  WF centre and spread    2  (  0.000131,  0.000003,  0.000192 )     0.36061413
  WF centre and spread    3  (  0.000199, -0.000074, -0.000271 )     0.37217500
  WF centre and spread    4  ( -0.000068,  0.000139,  0.000099 )     0.37230096
  WF centre and spread    5  (  0.000186, -0.000007, -0.000043 )     0.35893983
  WF centre and spread    6  (  0.000459,  0.000370,  0.000112 )     0.37238592
  WF centre and spread    7  (  4.338123,  4.287810,  4.173850 )     6.48872708
  WF centre and spread    8  (  4.177085,  4.176877,  4.176823 )     0.39001045
  WF centre and spread    9  (  4.177686,  4.177018,  4.177129 )     0.35295091
  WF centre and spread   10  (  4.176902,  4.177199,  4.177092 )     0.35363273
  WF centre and spread   11  (  4.176789,  4.176794,  4.177007 )     0.39105177
  WF centre and spread   12  (  4.177972,  4.177647,  4.177207 )     0.35388604
  WF centre and spread   13  (  2.093185,  2.093439,  2.098500 )     1.12656792
  WF centre and spread   14  (  2.106849,  2.090553,  2.090824 )     1.07470253
  WF centre and spread   15  (  2.092749,  2.102713,  2.093208 )     1.14173121
  WF centre and spread   16  (  6.269660,  6.269785,  6.256306 )     1.14974000
  WF centre and spread   17  (  6.272940,  6.269918,  6.269492 )     1.15382359
  WF centre and spread   18  (  6.268340,  6.261704,  6.268202 )     1.11621311
  Sum of centres and spreads ( 50.630102, 50.388124, 50.161498 )    24.02615581

     97    -0.239E-01     2.9274067684       24.0261558112      10.69  <-- CONV
        O_D=      0.6703371 O_OD=      8.7891147 O_TOT=     24.0261558 <-- SPRD
 Delta: O_D= -0.2379517E-01 O_OD= -0.1169052E-03 O_TOT= -0.2391208E-01 <-- DLTA
 ------------------------------------------------------------------------------
 Cycle:     98
  WF centre and spread    1  (  0.291125,  0.129246,  0.021670 )     7.09397918
  WF centre and spread    2  (  0.000130,  0.000004,  0.000193 )     0.36060726
  WF centre and spread    3  (  0.000198, -0.000074, -0.000270 )     0.37218591
  WF centre and spread    4  ( -0.000068,  0.000139,  0.000100 )     0.37232106
  WF centre and spread    5  (  0.000185, -0.000008, -0.000043 )     0.35894992
  WF centre and spread    6  (  0.000458,  0.000371,  0.000113 )     0.37239377
  WF centre and spread    7  (  4.335730,  4.287439,  4.175740 )     6.48337687
  WF centre and spread    8  (  4.177085,  4.176877,  4.176824 )     0.38999298
  WF centre and spread    9  (  4.177686,  4.177018,  4.177131 )     0.35296105
  WF centre and spread   10  (  4.176901,  4.177199,  4.177092 )     0.35362534
  WF centre and spread   11  (  4.176787,  4.176793,  4.177007 )     0.39103307
  WF centre and spread   12  (  4.177974,  4.177649,  4.177208 )     0.35388514
  WF centre and spread   13  (  2.093172,  2.093428,  2.098516 )     1.12630310
  WF centre and spread   14  (  2.106837,  2.090545,  2.090816 )     1.07442591
  WF centre and spread   15  (  2.092731,  2.102705,  2.093189 )     1.14121145
  WF centre and spread   16  (  6.269649,  6.269780,  6.256298 )     1.14961946
  WF centre and spread   17  (  6.272921,  6.269914,  6.269488 )     1.15340225
  WF centre and spread   18  (  6.268336,  6.261706,  6.268203 )     1.11588746
  Sum of centres and spreads ( 50.617838, 50.390731, 50.159274 )    24.01616117

     98    -0.999E-02     2.0268285406       24.0161611657      10.80  <-- CONV
        O_D=      0.6623849 O_OD=      8.7870722 O_TOT=     24.0161612 <-- SPRD
 Delta: O_D= -0.7952197E-02 O_OD= -0.2042448E-02 O_TOT= -0.9994645E-02 <-- DLTA
 ------------------------------------------------------------------------------
 Cycle:     99
  WF centre and spread    1  (  0.297710,  0.124953,  0.026398 )     7.09110730
  WF centre and spread    2  (  0.000130,  0.000005,  0.000195 )     0.36057452
  WF centre and spread    3  (  0.000198, -0.000075, -0.000268 )     0.37219535
  WF centre and spread    4  ( -0.000069,  0.000139,  0.000103 )     0.37233962
  WF centre and spread    5  (  0.000183, -0.000010, -0.000042 )     0.35895030
  WF centre and spread    6  (  0.000461,  0.000373,  0.000113 )     0.37239306
  WF centre and spread    7  (  4.336238,  4.286024,  4.180343 )     6.47934215
  WF centre and spread    8  (  4.177085,  4.176878,  4.176825 )     0.38995656
  WF centre and spread    9  (  4.177687,  4.177017,  4.177135 )     0.35296836
  WF centre and spread   10  (  4.176900,  4.177200,  4.177093 )     0.35360542
  WF centre and spread   11  (  4.176786,  4.176792,  4.177007 )     0.39098697
  WF centre and spread   12  (  4.177976,  4.177651,  4.177207 )     0.35387836
  WF centre and spread   13  (  2.093156,  2.093409,  2.098558 )     1.12561147
  WF centre and spread   14  (  2.106828,  2.090542,  2.090812 )     1.07366470
  WF centre and spread   15  (  2.092711,  2.102695,  2.093165 )     1.14013834
  WF centre and spread   16  (  6.269644,  6.269775,  6.256319 )     1.14906253
  WF centre and spread   17  (  6.272900,  6.269915,  6.269492 )     1.15254758
  WF centre and spread   18  (  6.268334,  6.261713,  6.268206 )     1.11499053
  Sum of centres and spreads ( 50.624856, 50.384995, 50.168659 )    24.00431313

     99    -0.118E-01     1.8176702532       24.0043131305      10.90  <-- CONV
        O_D=      0.6555843 O_OD=      8.7820248 O_TOT=     24.0043131 <-- SPRD
 Delta: O_D= -0.6800629E-02 O_OD= -0.5047406E-02 O_TOT= -0.1184804E-01 <-- DLTA
 ------------------------------------------------------------------------------
 Cycle:    100
  WF centre and spread    1  (  0.294592,  0.129628,  0.029160 )     7.08845804
  WF centre and spread    2  (  0.000129,  0.000005,  0.000196 )     0.36057271
  WF centre and spread    3  (  0.000197, -0.000075, -0.000268 )     0.37219992
  WF centre and spread    4  ( -0.000069,  0.000140,  0.000102 )     0.37233660
  WF centre and spread    5  (  0.000183, -0.000009, -0.000042 )     0.35894363
  WF centre and spread    6  (  0.000460,  0.000374,  0.000113 )     0.37239600
  WF centre and spread    7  (  4.330706,  4.288650,  4.181181 )     6.48133502
  WF centre and spread    8  (  4.177085,  4.176878,  4.176825 )     0.38994770
  WF centre and spread    9  (  4.177687,  4.177017,  4.177135 )     0.35296937
  WF centre and spread   10  (  4.176901,  4.177201,  4.177094 )     0.35359876
  WF centre and spread   11  (  4.176785,  4.176792,  4.177007 )     0.39097931
  WF centre and spread   12  (  4.177976,  4.177652,  4.177207 )     0.35387874
  WF centre and spread   13  (  2.093152,  2.093405,  2.098557 )     1.12541602
  WF centre and spread   14  (  2.106813,  2.090536,  2.090807 )     1.07350536
  WF centre and spread   15  (  2.092707,  2.102702,  2.093162 )     1.13993559
  WF centre and spread   16  (  6.269643,  6.269773,  6.256320 )     1.14893093
  WF centre and spread   17  (  6.272889,  6.269916,  6.269494 )     1.15251387
  WF centre and spread   18  (  6.268332,  6.261720,  6.268205 )     1.11472989
  Sum of centres and spreads ( 50.616169, 50.392304, 50.172255 )    24.00264746

    100    -0.167E-02     1.6997200979       24.0026474569      11.01  <-- CONV
        O_D=      0.6548306 O_OD=      8.7811129 O_TOT=     24.0026475 <-- SPRD
 Delta: O_D= -0.7536922E-03 O_OD= -0.9119814E-03 O_TOT= -0.1665674E-02 <-- DLTA
 ------------------------------------------------------------------------------

 Writing checkpoint file wanup.chk... done

 Final State
  WF centre and spread    1  (  0.294592,  0.129628,  0.029160 )     7.08845804
  WF centre and spread    2  (  0.000129,  0.000005,  0.000196 )     0.36057271
  WF centre and spread    3  (  0.000197, -0.000075, -0.000268 )     0.37219992
  WF centre and spread    4  ( -0.000069,  0.000140,  0.000102 )     0.37233660
  WF centre and spread    5  (  0.000183, -0.000009, -0.000042 )     0.35894363
  WF centre and spread    6  (  0.000460,  0.000374,  0.000113 )     0.37239600
  WF centre and spread    7  (  4.330706,  4.288650,  4.181181 )     6.48133502
  WF centre and spread    8  (  4.177085,  4.176878,  4.176825 )     0.38994770
  WF centre and spread    9  (  4.177687,  4.177017,  4.177135 )     0.35296937
  WF centre and spread   10  (  4.176901,  4.177201,  4.177094 )     0.35359876
  WF centre and spread   11  (  4.176785,  4.176792,  4.177007 )     0.39097931
  WF centre and spread   12  (  4.177976,  4.177652,  4.177207 )     0.35387874
  WF centre and spread   13  (  2.093152,  2.093405,  2.098557 )     1.12541602
  WF centre and spread   14  (  2.106813,  2.090536,  2.090807 )     1.07350536
  WF centre and spread   15  (  2.092707,  2.102702,  2.093162 )     1.13993559
  WF centre and spread   16  (  6.269643,  6.269773,  6.256320 )     1.14893093
  WF centre and spread   17  (  6.272889,  6.269916,  6.269494 )     1.15251387
  WF centre and spread   18  (  6.268332,  6.261720,  6.268205 )     1.11472989
  Sum of centres and spreads ( 50.616169, 50.392304, 50.172255 )    24.00264746

         Spreads (Ang^2)       Omega I      =    14.566704015
        ================       Omega D      =     0.654830588
                               Omega OD     =     8.781112854
    Final Spread (Ang^2)       Omega Total  =    24.002647457
 ------------------------------------------------------------------------------
 Time for wannierise           10.738 (sec)

 Writing checkpoint file wanup.chk... done

 Time for plotting              0.000 (sec)
 Total Execution Time          16.910 (sec)

 *===========================================================================*
 |                             TIMING INFORMATION                            |
 *===========================================================================*
 |    Tag                                                Ncalls      Time (s)|
 |---------------------------------------------------------------------------|
 |kmesh: get                                        :         1         1.249|
 |overlap: allocate                                 :         1         0.001|
 |overlap: read                                     :         1         4.493|
 |dis: main                                         :         1         0.354|
 |wann: main                                        :         1        10.738|
 |plot: main                                        :         1         0.000|
 *---------------------------------------------------------------------------*

 All done: wannier90 exiting
